# LAMMPS data file
80 atoms
80 ellipsoids
78 bonds

4 atom types
1 bond types

# System size
-11.739900 11.739800 xlo xhi
-11.739900 11.739800 ylo yhi
-11.739900 11.739800 zlo zhi

Masses

1 3.1575
2 3.1575
3 3.1575
4 3.1575

# Atom-ID, type, position, molecule-ID, ellipsoid flag, density
Atoms

1 3  2.115566438424012e+00 -4.666473170612665e+00  6.829759661934007e+00 1 1 1
2 1  2.274031328716748e+00 -5.000627173167683e+00  7.219522517064320e+00 1 1 1
3 4  2.598333158393420e+00 -5.178386398378048e+00  7.609285372194632e+00 1 1 1
4 4  2.965264240322415e+00 -5.132217144610587e+00  7.999048227324945e+00 1 1 1
5 1  3.235421321718370e+00 -4.879659883280317e+00  8.388811082455257e+00 1 1 1
6 1  3.306167210573431e+00 -4.516665340498839e+00  8.778573937585570e+00 1 1 1
7 4  3.150624360903374e+00 -4.181141212013948e+00  9.168336792715882e+00 1 1 1
8 3  2.827886101835622e+00 -4.000558723901333e+00  9.558099647846195e+00 1 1 1
9 1  2.460566093885951e+00 -4.043524182573170e+00  9.947862502976507e+00 1 1 1
10 2  2.188215349337478e+00 -4.293714291935869e+00  1.033762535810682e+01 1 1 1
11 3  2.114304469505788e+00 -4.656077646486978e+00  1.072738821323713e+01 1 1 1
12 3  2.266913433362954e+00 -4.992946349440323e+00  1.111715106836744e+01 1 1 1
13 1  2.588063544053828e+00 -5.176338348399565e+00  1.150691392349776e+01 1 1 1
14 2  2.955744505183430e+00 -5.136579956809376e+00  1.189667677862807e+01 1 1 1
15 1  3.230268172320777e+00 -4.888776052359727e+00  1.228643963375838e+01 1 1 1
16 1  3.307338414529438e+00 -4.527071481411384e+00  1.267620248888869e+01 1 1 1
17 2  3.157674958248609e+00 -4.188883857845554e+00  1.306596534401901e+01 1 1 1
18 4  2.838137452758927e+00 -4.002696314050437e+00  1.345572819914932e+01 1 1 1
19 2  2.470123538778117e+00 -4.039244610803527e+00  1.384549105427963e+01 1 1 1
20 4  2.193447855092012e+00 -4.284643439113390e+00  1.423525390940994e+01 1 1 1
21 3  2.113224119703713e+00 -4.645661681255494e+00  1.462501676454026e+01 1 1 1
22 2  2.259930670956563e+00 -4.985142471136927e+00  1.501477961967057e+01 1 1 1
23 4  2.577831237226870e+00 -5.174111380865605e+00  1.540454247480088e+01 1 1 1
24 3  2.946150078374515e+00 -5.140775962243914e+00  1.579430532993119e+01 1 1 1
25 4  3.224956708684872e+00 -4.897800898144713e+00  1.618406818506151e+01 1 1 1
26 2  3.308327827904761e+00 -4.537496477745727e+00  1.657383104019182e+01 1 1 1
27 2  3.164589353951765e+00 -4.196748374325193e+00  1.696359389532213e+01 1 1 1
28 4  2.848349936259756e+00 -4.005012489377053e+00  1.735335675045244e+01 1 1 1
29 3  2.479754216851035e+00 -4.035132491246153e+00  1.774311960558275e+01 1 1 1
30 1  2.198837872120767e+00 -4.275665287642845e+00  1.813288246071306e+01 1 1 1
31 2  2.112325718102802e+00 -4.635228447722126e+00  1.852264531584337e+01 1 1 1
32 3  2.253085168514646e+00 -4.977217915394426e+00  1.891240817097368e+01 1 1 1
33 2  2.567639354772329e+00 -5.171706174132051e+00  1.930217102610399e+01 1 1 1
34 3  2.936483882451017e+00 -5.144803882770299e+00  1.969193388123430e+01 1 1 1
35 3  3.219488548733932e+00 -4.906731671579823e+00  2.008169673636461e+01 1 1 1
36 2  3.309135149314500e+00 -4.547937153946993e+00  2.047145959149492e+01 1 1 1
37 3  3.171365441820929e+00 -4.204732365844958e+00  2.086122244662523e+01 1 1 1
38 1  2.858520441516702e+00 -4.007506544351739e+00  2.125098530175555e+01 1 1 1
39 1  2.489455194506869e+00 -4.031189076492501e+00  2.164074815688586e+01 1 1 1
40 1  2.204383758572341e+00 -4.266782572356145e+00  2.203051101201617e+01 1 1 1
41 4  3.216696226306627e+00 -4.911160929899073e+00  2.203051101201617e+01 2 1 1
42 4  2.931624790372099e+00 -5.146754425762717e+00  2.164074815688586e+01 2 1 1
43 4  2.562559543362267e+00 -5.170436957903479e+00  2.125098530175555e+01 2 1 1
44 2  2.249714543058039e+00 -4.973211136410260e+00  2.086122244662523e+01 2 1 1
45 3  2.111944835564468e+00 -4.630006348308225e+00  2.047145959149492e+01 2 1 1
46 2  2.201591436145036e+00 -4.271211830675395e+00  2.008169673636461e+01 2 1 1
47 2  2.484596102427951e+00 -4.033139619484919e+00  1.969193388123430e+01 2 1 1
48 3  2.853440630106639e+00 -4.006237328123166e+00  1.930217102610399e+01 2 1 1
49 2  3.167994816364323e+00 -4.200725586860792e+00  1.891240817097368e+01 2 1 1
50 3  3.308754266776166e+00 -4.542715054533092e+00  1.852264531584337e+01 2 1 1
51 4  3.222242112758201e+00 -4.902278214612373e+00  1.813288246071306e+01 2 1 1
52 2  2.941325768027933e+00 -5.142811011009065e+00  1.774311960558275e+01 2 1 1
53 1  2.572730048619212e+00 -5.172931012878164e+00  1.735335675045244e+01 2 1 1
54 3  2.256490630927203e+00 -4.981195127930025e+00  1.696359389532213e+01 2 1 1
55 3  2.112752156974207e+00 -4.640447024509491e+00  1.657383104019182e+01 2 1 1
56 1  2.196123276194096e+00 -4.280142604110504e+00  1.618406818506151e+01 2 1 1
57 2  2.474929906504454e+00 -4.037167540011303e+00  1.579430532993119e+01 2 1 1
58 1  2.843248747652098e+00 -4.003832121389613e+00  1.540454247480088e+01 2 1 1
59 3  3.161149313922405e+00 -4.192801031118290e+00  1.501477961967057e+01 2 1 1
60 2  3.307855865175255e+00 -4.532281820999724e+00  1.462501676454026e+01 2 1 1
61 1  3.227632129786956e+00 -4.893300063141829e+00  1.423525390940994e+01 2 1 1
62 3  2.950956446100851e+00 -5.138698891451691e+00  1.384549105427963e+01 2 1 1
63 1  2.582942532120041e+00 -5.175247188204780e+00  1.345572819914932e+01 2 1 1
64 3  2.263405026630358e+00 -4.989059644409664e+00  1.306596534401901e+01 2 1 1
65 4  2.113741570349529e+00 -4.650872020843834e+00  1.267620248888869e+01 2 1 1
66 4  2.190811812558191e+00 -4.289167449895490e+00  1.228643963375838e+01 2 1 1
67 3  2.465335479695538e+00 -4.041363545445842e+00  1.189667677862807e+01 2 1 1
68 4  2.833016440825141e+00 -4.001605153855652e+00  1.150691392349776e+01 2 1 1
69 2  3.154166551516014e+00 -4.184997152814895e+00  1.111715106836744e+01 2 1 1
70 2  3.306775515373181e+00 -4.521865855768240e+00  1.072738821323713e+01 2 1 1
71 3  3.232864635541491e+00 -4.884229210319349e+00  1.033762535810682e+01 2 1 1
72 4  2.960513890993017e+00 -5.134419319682047e+00  9.947862502976506e+00 2 1 1
73 2  2.593193883043347e+00 -5.177384778353885e+00  9.558099647846193e+00 2 1 1
74 1  2.270455623975593e+00 -4.996802290241270e+00  9.168336792715881e+00 2 1 1
75 4  2.114912774305537e+00 -4.661278161756379e+00  8.778573937585568e+00 2 1 1
76 4  2.185658663160598e+00 -4.298283618974900e+00  8.388811082455256e+00 2 1 1
77 1  2.455815744556554e+00 -4.045726357644631e+00  7.999048227324943e+00 2 1 1
78 1  2.822746826485548e+00 -3.999557103877169e+00  7.609285372194631e+00 2 1 1
79 4  3.147048656162221e+00 -4.177316329087535e+00  7.219522517064318e+00 2 1 1
80 2  3.305513546454956e+00 -4.511470331642553e+00  6.829759661934006e+00 2 1 1

# Atom-ID, translational, rotational velocity
Velocities

1  0.000000000000000e+00  0.000000000000000e+00  0.000000000000000e+00  0.000000000000000e+00  0.000000000000000e+00  0.000000000000000e+00
2  0.000000000000000e+00  0.000000000000000e+00  0.000000000000000e+00  0.000000000000000e+00  0.000000000000000e+00  0.000000000000000e+00
3  0.000000000000000e+00  0.000000000000000e+00  0.000000000000000e+00  0.000000000000000e+00  0.000000000000000e+00  0.000000000000000e+00
4  0.000000000000000e+00  0.000000000000000e+00  0.000000000000000e+00  0.000000000000000e+00  0.000000000000000e+00  0.000000000000000e+00
5  0.000000000000000e+00  0.000000000000000e+00  0.000000000000000e+00  0.000000000000000e+00  0.000000000000000e+00  0.000000000000000e+00
6  0.000000000000000e+00  0.000000000000000e+00  0.000000000000000e+00  0.000000000000000e+00  0.000000000000000e+00  0.000000000000000e+00
7  0.000000000000000e+00  0.000000000000000e+00  0.000000000000000e+00  0.000000000000000e+00  0.000000000000000e+00  0.000000000000000e+00
8  0.000000000000000e+00  0.000000000000000e+00  0.000000000000000e+00  0.000000000000000e+00  0.000000000000000e+00  0.000000000000000e+00
9  0.000000000000000e+00  0.000000000000000e+00  0.000000000000000e+00  0.000000000000000e+00  0.000000000000000e+00  0.000000000000000e+00
10  0.000000000000000e+00  0.000000000000000e+00  0.000000000000000e+00  0.000000000000000e+00  0.000000000000000e+00  0.000000000000000e+00
11  0.000000000000000e+00  0.000000000000000e+00  0.000000000000000e+00  0.000000000000000e+00  0.000000000000000e+00  0.000000000000000e+00
12  0.000000000000000e+00  0.000000000000000e+00  0.000000000000000e+00  0.000000000000000e+00  0.000000000000000e+00  0.000000000000000e+00
13  0.000000000000000e+00  0.000000000000000e+00  0.000000000000000e+00  0.000000000000000e+00  0.000000000000000e+00  0.000000000000000e+00
14  0.000000000000000e+00  0.000000000000000e+00  0.000000000000000e+00  0.000000000000000e+00  0.000000000000000e+00  0.000000000000000e+00
15  0.000000000000000e+00  0.000000000000000e+00  0.000000000000000e+00  0.000000000000000e+00  0.000000000000000e+00  0.000000000000000e+00
16  0.000000000000000e+00  0.000000000000000e+00  0.000000000000000e+00  0.000000000000000e+00  0.000000000000000e+00  0.000000000000000e+00
17  0.000000000000000e+00  0.000000000000000e+00  0.000000000000000e+00  0.000000000000000e+00  0.000000000000000e+00  0.000000000000000e+00
18  0.000000000000000e+00  0.000000000000000e+00  0.000000000000000e+00  0.000000000000000e+00  0.000000000000000e+00  0.000000000000000e+00
19  0.000000000000000e+00  0.000000000000000e+00  0.000000000000000e+00  0.000000000000000e+00  0.000000000000000e+00  0.000000000000000e+00
20  0.000000000000000e+00  0.000000000000000e+00  0.000000000000000e+00  0.000000000000000e+00  0.000000000000000e+00  0.000000000000000e+00
21  0.000000000000000e+00  0.000000000000000e+00  0.000000000000000e+00  0.000000000000000e+00  0.000000000000000e+00  0.000000000000000e+00
22  0.000000000000000e+00  0.000000000000000e+00  0.000000000000000e+00  0.000000000000000e+00  0.000000000000000e+00  0.000000000000000e+00
23  0.000000000000000e+00  0.000000000000000e+00  0.000000000000000e+00  0.000000000000000e+00  0.000000000000000e+00  0.000000000000000e+00
24  0.000000000000000e+00  0.000000000000000e+00  0.000000000000000e+00  0.000000000000000e+00  0.000000000000000e+00  0.000000000000000e+00
25  0.000000000000000e+00  0.000000000000000e+00  0.000000000000000e+00  0.000000000000000e+00  0.000000000000000e+00  0.000000000000000e+00
26  0.000000000000000e+00  0.000000000000000e+00  0.000000000000000e+00  0.000000000000000e+00  0.000000000000000e+00  0.000000000000000e+00
27  0.000000000000000e+00  0.000000000000000e+00  0.000000000000000e+00  0.000000000000000e+00  0.000000000000000e+00  0.000000000000000e+00
28  0.000000000000000e+00  0.000000000000000e+00  0.000000000000000e+00  0.000000000000000e+00  0.000000000000000e+00  0.000000000000000e+00
29  0.000000000000000e+00  0.000000000000000e+00  0.000000000000000e+00  0.000000000000000e+00  0.000000000000000e+00  0.000000000000000e+00
30  0.000000000000000e+00  0.000000000000000e+00  0.000000000000000e+00  0.000000000000000e+00  0.000000000000000e+00  0.000000000000000e+00
31  0.000000000000000e+00  0.000000000000000e+00  0.000000000000000e+00  0.000000000000000e+00  0.000000000000000e+00  0.000000000000000e+00
32  0.000000000000000e+00  0.000000000000000e+00  0.000000000000000e+00  0.000000000000000e+00  0.000000000000000e+00  0.000000000000000e+00
33  0.000000000000000e+00  0.000000000000000e+00  0.000000000000000e+00  0.000000000000000e+00  0.000000000000000e+00  0.000000000000000e+00
34  0.000000000000000e+00  0.000000000000000e+00  0.000000000000000e+00  0.000000000000000e+00  0.000000000000000e+00  0.000000000000000e+00
35  0.000000000000000e+00  0.000000000000000e+00  0.000000000000000e+00  0.000000000000000e+00  0.000000000000000e+00  0.000000000000000e+00
36  0.000000000000000e+00  0.000000000000000e+00  0.000000000000000e+00  0.000000000000000e+00  0.000000000000000e+00  0.000000000000000e+00
37  0.000000000000000e+00  0.000000000000000e+00  0.000000000000000e+00  0.000000000000000e+00  0.000000000000000e+00  0.000000000000000e+00
38  0.000000000000000e+00  0.000000000000000e+00  0.000000000000000e+00  0.000000000000000e+00  0.000000000000000e+00  0.000000000000000e+00
39  0.000000000000000e+00  0.000000000000000e+00  0.000000000000000e+00  0.000000000000000e+00  0.000000000000000e+00  0.000000000000000e+00
40  0.000000000000000e+00  0.000000000000000e+00  0.000000000000000e+00  0.000000000000000e+00  0.000000000000000e+00  0.000000000000000e+00
41  0.000000000000000e+00  0.000000000000000e+00  0.000000000000000e+00  0.000000000000000e+00  0.000000000000000e+00  0.000000000000000e+00
42  0.000000000000000e+00  0.000000000000000e+00  0.000000000000000e+00  0.000000000000000e+00  0.000000000000000e+00  0.000000000000000e+00
43  0.000000000000000e+00  0.000000000000000e+00  0.000000000000000e+00  0.000000000000000e+00  0.000000000000000e+00  0.000000000000000e+00
44  0.000000000000000e+00  0.000000000000000e+00  0.000000000000000e+00  0.000000000000000e+00  0.000000000000000e+00  0.000000000000000e+00
45  0.000000000000000e+00  0.000000000000000e+00  0.000000000000000e+00  0.000000000000000e+00  0.000000000000000e+00  0.000000000000000e+00
46  0.000000000000000e+00  0.000000000000000e+00  0.000000000000000e+00  0.000000000000000e+00  0.000000000000000e+00  0.000000000000000e+00
47  0.000000000000000e+00  0.000000000000000e+00  0.000000000000000e+00  0.000000000000000e+00  0.000000000000000e+00  0.000000000000000e+00
48  0.000000000000000e+00  0.000000000000000e+00  0.000000000000000e+00  0.000000000000000e+00  0.000000000000000e+00  0.000000000000000e+00
49  0.000000000000000e+00  0.000000000000000e+00  0.000000000000000e+00  0.000000000000000e+00  0.000000000000000e+00  0.000000000000000e+00
50  0.000000000000000e+00  0.000000000000000e+00  0.000000000000000e+00  0.000000000000000e+00  0.000000000000000e+00  0.000000000000000e+00
51  0.000000000000000e+00  0.000000000000000e+00  0.000000000000000e+00  0.000000000000000e+00  0.000000000000000e+00  0.000000000000000e+00
52  0.000000000000000e+00  0.000000000000000e+00  0.000000000000000e+00  0.000000000000000e+00  0.000000000000000e+00  0.000000000000000e+00
53  0.000000000000000e+00  0.000000000000000e+00  0.000000000000000e+00  0.000000000000000e+00  0.000000000000000e+00  0.000000000000000e+00
54  0.000000000000000e+00  0.000000000000000e+00  0.000000000000000e+00  0.000000000000000e+00  0.000000000000000e+00  0.000000000000000e+00
55  0.000000000000000e+00  0.000000000000000e+00  0.000000000000000e+00  0.000000000000000e+00  0.000000000000000e+00  0.000000000000000e+00
56  0.000000000000000e+00  0.000000000000000e+00  0.000000000000000e+00  0.000000000000000e+00  0.000000000000000e+00  0.000000000000000e+00
57  0.000000000000000e+00  0.000000000000000e+00  0.000000000000000e+00  0.000000000000000e+00  0.000000000000000e+00  0.000000000000000e+00
58  0.000000000000000e+00  0.000000000000000e+00  0.000000000000000e+00  0.000000000000000e+00  0.000000000000000e+00  0.000000000000000e+00
59  0.000000000000000e+00  0.000000000000000e+00  0.000000000000000e+00  0.000000000000000e+00  0.000000000000000e+00  0.000000000000000e+00
60  0.000000000000000e+00  0.000000000000000e+00  0.000000000000000e+00  0.000000000000000e+00  0.000000000000000e+00  0.000000000000000e+00
61  0.000000000000000e+00  0.000000000000000e+00  0.000000000000000e+00  0.000000000000000e+00  0.000000000000000e+00  0.000000000000000e+00
62  0.000000000000000e+00  0.000000000000000e+00  0.000000000000000e+00  0.000000000000000e+00  0.000000000000000e+00  0.000000000000000e+00
63  0.000000000000000e+00  0.000000000000000e+00  0.000000000000000e+00  0.000000000000000e+00  0.000000000000000e+00  0.000000000000000e+00
64  0.000000000000000e+00  0.000000000000000e+00  0.000000000000000e+00  0.000000000000000e+00  0.000000000000000e+00  0.000000000000000e+00
65  0.000000000000000e+00  0.000000000000000e+00  0.000000000000000e+00  0.000000000000000e+00  0.000000000000000e+00  0.000000000000000e+00
66  0.000000000000000e+00  0.000000000000000e+00  0.000000000000000e+00  0.000000000000000e+00  0.000000000000000e+00  0.000000000000000e+00
67  0.000000000000000e+00  0.000000000000000e+00  0.000000000000000e+00  0.000000000000000e+00  0.000000000000000e+00  0.000000000000000e+00
68  0.000000000000000e+00  0.000000000000000e+00  0.000000000000000e+00  0.000000000000000e+00  0.000000000000000e+00  0.000000000000000e+00
69  0.000000000000000e+00  0.000000000000000e+00  0.000000000000000e+00  0.000000000000000e+00  0.000000000000000e+00  0.000000000000000e+00
70  0.000000000000000e+00  0.000000000000000e+00  0.000000000000000e+00  0.000000000000000e+00  0.000000000000000e+00  0.000000000000000e+00
71  0.000000000000000e+00  0.000000000000000e+00  0.000000000000000e+00  0.000000000000000e+00  0.000000000000000e+00  0.000000000000000e+00
72  0.000000000000000e+00  0.000000000000000e+00  0.000000000000000e+00  0.000000000000000e+00  0.000000000000000e+00  0.000000000000000e+00
73  0.000000000000000e+00  0.000000000000000e+00  0.000000000000000e+00  0.000000000000000e+00  0.000000000000000e+00  0.000000000000000e+00
74  0.000000000000000e+00  0.000000000000000e+00  0.000000000000000e+00  0.000000000000000e+00  0.000000000000000e+00  0.000000000000000e+00
75  0.000000000000000e+00  0.000000000000000e+00  0.000000000000000e+00  0.000000000000000e+00  0.000000000000000e+00  0.000000000000000e+00
76  0.000000000000000e+00  0.000000000000000e+00  0.000000000000000e+00  0.000000000000000e+00  0.000000000000000e+00  0.000000000000000e+00
77  0.000000000000000e+00  0.000000000000000e+00  0.000000000000000e+00  0.000000000000000e+00  0.000000000000000e+00  0.000000000000000e+00
78  0.000000000000000e+00  0.000000000000000e+00  0.000000000000000e+00  0.000000000000000e+00  0.000000000000000e+00  0.000000000000000e+00
79  0.000000000000000e+00  0.000000000000000e+00  0.000000000000000e+00  0.000000000000000e+00  0.000000000000000e+00  0.000000000000000e+00
80  0.000000000000000e+00  0.000000000000000e+00  0.000000000000000e+00  0.000000000000000e+00  0.000000000000000e+00  0.000000000000000e+00

# Atom-ID, shape, quaternion
Ellipsoids

1  1.173984503142341e+00  1.173984503142341e+00  1.173984503142341e+00  9.979034497449606e-01  0.000000000000000e+00  0.000000000000000e+00  6.472020540068600e-02
2  1.173984503142341e+00  1.173984503142341e+00  1.173984503142341e+00  9.293853989432732e-01  0.000000000000000e+00  0.000000000000000e+00  3.691107966871910e-01
3  1.173984503142341e+00  1.173984503142341e+00  1.173984503142341e+00  7.703932080687023e-01  0.000000000000000e+00  0.000000000000000e+00  6.375690589744873e-01
4  1.173984503142341e+00  1.173984503142341e+00  1.173984503142341e+00  5.364045054162867e-01  0.000000000000000e+00  0.000000000000000e+00  8.439610219489458e-01
5  1.173984503142341e+00  1.173984503142341e+00  1.173984503142341e+00  2.501977063595816e-01  0.000000000000000e+00  0.000000000000000e+00  9.681947674576664e-01
6  1.173984503142341e+00  1.173984503142341e+00  1.173984503142341e+00 -6.036542792342370e-02  0.000000000000000e+00  0.000000000000000e+00  9.981763446964780e-01
7  1.173984503142341e+00  1.173984503142341e+00  1.173984503142341e+00 -3.650520870781203e-01  0.000000000000000e+00  0.000000000000000e+00  9.309870964304009e-01
8  1.173984503142341e+00  1.173984503142341e+00  1.173984503142341e+00  6.342015259388917e-01  0.000000000000000e+00  0.000000000000000e+00 -7.731677854753011e-01
9  1.173984503142341e+00  1.173984503142341e+00  1.173984503142341e+00  8.416124892894256e-01 -0.000000000000000e+00  0.000000000000000e+00 -5.400818621950346e-01
10  1.173984503142341e+00  1.173984503142341e+00  1.173984503142341e+00  9.670938609661105e-01 -0.000000000000000e+00  0.000000000000000e+00 -2.544198578760344e-01
11  1.173984503142341e+00  1.173984503142341e+00  1.173984503142341e+00  9.984302358092326e-01  0.000000000000000e+00  0.000000000000000e+00  5.600950117542861e-02
12  1.173984503142341e+00  1.173984503142341e+00  1.173984503142341e+00  9.325710692652014e-01  0.000000000000000e+00  0.000000000000000e+00  3.609864274035228e-01
13  1.173984503142341e+00  1.173984503142341e+00  1.173984503142341e+00  7.759276428817615e-01  0.000000000000000e+00  0.000000000000000e+00  6.308219186204246e-01
14  1.173984503142341e+00  1.173984503142341e+00  1.173984503142341e+00  5.437489365936371e-01  0.000000000000000e+00  0.000000000000000e+00  8.392479335412683e-01
15  1.173984503142341e+00  1.173984503142341e+00  1.173984503142341e+00  2.586371656051316e-01  0.000000000000000e+00  0.000000000000000e+00  9.659745424014774e-01
16  1.173984503142341e+00  1.173984503142341e+00  1.173984503142341e+00 -5.165250808726708e-02  0.000000000000000e+00  0.000000000000000e+00  9.986651182495037e-01
17  1.173984503142341e+00  1.173984503142341e+00  1.173984503142341e+00 -3.569138950676983e-01  0.000000000000000e+00  0.000000000000000e+00  9.341372872911154e-01
18  1.173984503142341e+00  1.173984503142341e+00  1.173984503142341e+00  6.274303013619362e-01  0.000000000000000e+00  0.000000000000000e+00 -7.786727277443777e-01
19  1.173984503142341e+00  1.173984503142341e+00  1.173984503142341e+00  8.368673997222051e-01 -0.000000000000000e+00  0.000000000000000e+00 -5.474056587962850e-01
20  1.173984503142341e+00  1.173984503142341e+00  1.173984503142341e+00  9.648368330739796e-01 -0.000000000000000e+00  0.000000000000000e+00 -2.628495492554133e-01
21  1.173984503142341e+00  1.173984503142341e+00  1.173984503142341e+00  9.988809875454679e-01  0.000000000000000e+00  0.000000000000000e+00  4.729453160980702e-02
22  1.173984503142341e+00  1.173984503142341e+00  1.173984503142341e+00  9.356857206896094e-01  0.000000000000000e+00  0.000000000000000e+00  3.528345676057918e-01
23  1.173984503142341e+00  1.173984503142341e+00  1.173984503142341e+00  7.814029878006895e-01  0.000000000000000e+00  0.000000000000000e+00  6.240267387349323e-01
24  1.173984503142341e+00  1.173984503142341e+00  1.173984503142341e+00  5.510519591842566e-01  0.000000000000000e+00  0.000000000000000e+00  8.344709331541708e-01
25  1.173984503142341e+00  1.173984503142341e+00  1.173984503142341e+00  2.670569286291664e-01  0.000000000000000e+00  0.000000000000000e+00  9.636807546439621e-01
26  1.173984503142341e+00  1.173984503142341e+00  1.173984503142341e+00 -4.293565471263873e-02  0.000000000000000e+00  0.000000000000000e+00  9.990778395872852e-01
27  1.173984503142341e+00  1.173984503142341e+00  1.173984503142341e+00 -3.487485226823184e-01  0.000000000000000e+00  0.000000000000000e+00  9.372163399807436e-01
28  1.173984503142341e+00  1.173984503142341e+00  1.173984503142341e+00  6.206112955383369e-01  0.000000000000000e+00  0.000000000000000e+00 -7.841183710704827e-01
29  1.173984503142341e+00  1.173984503142341e+00  1.173984503142341e+00  8.320585794624320e-01 -0.000000000000000e+00  0.000000000000000e+00 -5.546877683372509e-01
30  1.173984503142341e+00  1.173984503142341e+00  1.173984503142341e+00  9.625063291214923e-01 -0.000000000000000e+00  0.000000000000000e+00 -2.712592236239527e-01
31  1.173984503142341e+00  1.173984503142341e+00  1.173984503142341e+00  9.992556706271766e-01  0.000000000000000e+00  0.000000000000000e+00  3.857596038249513e-02
32  1.173984503142341e+00  1.173984503142341e+00  1.173984503142341e+00  9.387291160237324e-01  0.000000000000000e+00  0.000000000000000e+00  3.446558380896831e-01
33  1.173984503142341e+00  1.173984503142341e+00  1.173984503142341e+00  7.868188258567718e-01  0.000000000000000e+00  0.000000000000000e+00  6.171840367972676e-01
34  1.173984503142341e+00  1.173984503142341e+00  1.173984503142341e+00  5.583130170346999e-01  0.000000000000000e+00  0.000000000000000e+00  8.296303845747280e-01
35  1.173984503142341e+00  1.173984503142341e+00  1.173984503142341e+00  2.754563542341330e-01  0.000000000000000e+00  0.000000000000000e+00  9.613135788659389e-01
36  1.173984503142341e+00  1.173984503142341e+00  1.173984503142341e+00 -3.421553162167193e-02  0.000000000000000e+00  0.000000000000000e+00  9.994144772794951e-01
37  1.173984503142341e+00  1.173984503142341e+00  1.173984503142341e+00 -3.405565917467014e-01  0.000000000000000e+00  0.000000000000000e+00  9.402240200175012e-01
38  1.173984503142341e+00  1.173984503142341e+00  1.173984503142341e+00  6.137450277617883e-01  0.000000000000000e+00  0.000000000000000e+00 -7.895043007467925e-01
39  1.173984503142341e+00  1.173984503142341e+00  1.173984503142341e+00  8.271863947203870e-01 -0.000000000000000e+00  0.000000000000000e+00 -5.619276362570967e-01
40  1.173984503142341e+00  1.173984503142341e+00  1.173984503142341e+00  9.601025265855476e-01 -0.000000000000000e+00  0.000000000000000e+00 -2.796482405523905e-01
41  1.173984503142341e+00  1.173984503142341e+00  1.173984503142341e+00  0.000000000000000e+00  2.796482405523905e-01  9.601025265855476e-01 -0.000000000000000e+00
42  1.173984503142341e+00  1.173984503142341e+00  1.173984503142341e+00  0.000000000000000e+00  5.619276362570962e-01  8.271863947203876e-01  0.000000000000000e+00
43  1.173984503142341e+00  1.173984503142341e+00  1.173984503142341e+00  0.000000000000000e+00  7.895043007467921e-01  6.137450277617887e-01  0.000000000000000e+00
44  1.173984503142341e+00  1.173984503142341e+00  1.173984503142341e+00  0.000000000000000e+00  9.402240200175014e-01  3.405565917467014e-01  0.000000000000000e+00
45  1.173984503142341e+00  1.173984503142341e+00  1.173984503142341e+00  0.000000000000000e+00  9.994144772794951e-01  3.421553162167193e-02  0.000000000000000e+00
46  1.173984503142341e+00  1.173984503142341e+00  1.173984503142341e+00  0.000000000000000e+00  9.613135788659389e-01 -2.754563542341330e-01  0.000000000000000e+00
47  1.173984503142341e+00  1.173984503142341e+00  1.173984503142341e+00  0.000000000000000e+00  8.296303845747275e-01 -5.583130170347005e-01  0.000000000000000e+00
48  1.173984503142341e+00  1.173984503142341e+00  1.173984503142341e+00  0.000000000000000e+00  6.171840367972672e-01 -7.868188258567722e-01  0.000000000000000e+00
49  1.173984503142341e+00  1.173984503142341e+00  1.173984503142341e+00 -0.000000000000000e+00 -3.446558380896831e-01  9.387291160237324e-01  0.000000000000000e+00
50  1.173984503142341e+00  1.173984503142341e+00  1.173984503142341e+00 -0.000000000000000e+00 -3.857596038249518e-02  9.992556706271766e-01  0.000000000000000e+00
51  1.173984503142341e+00  1.173984503142341e+00  1.173984503142341e+00 -0.000000000000000e+00  2.712592236239527e-01  9.625063291214923e-01 -0.000000000000000e+00
52  1.173984503142341e+00  1.173984503142341e+00  1.173984503142341e+00  0.000000000000000e+00  5.546877683372503e-01  8.320585794624326e-01  0.000000000000000e+00
53  1.173984503142341e+00  1.173984503142341e+00  1.173984503142341e+00  0.000000000000000e+00  7.841183710704821e-01  6.206112955383376e-01  0.000000000000000e+00
54  1.173984503142341e+00  1.173984503142341e+00  1.173984503142341e+00  0.000000000000000e+00  9.372163399807436e-01  3.487485226823184e-01  0.000000000000000e+00
55  1.173984503142341e+00  1.173984503142341e+00  1.173984503142341e+00  0.000000000000000e+00  9.990778395872852e-01  4.293565471263870e-02  0.000000000000000e+00
56  1.173984503142341e+00  1.173984503142341e+00  1.173984503142341e+00  0.000000000000000e+00  9.636807546439621e-01 -2.670569286291664e-01  0.000000000000000e+00
57  1.173984503142341e+00  1.173984503142341e+00  1.173984503142341e+00  0.000000000000000e+00  8.344709331541702e-01 -5.510519591842573e-01  0.000000000000000e+00
58  1.173984503142341e+00  1.173984503142341e+00  1.173984503142341e+00  0.000000000000000e+00  6.240267387349318e-01 -7.814029878006900e-01  0.000000000000000e+00
59  1.173984503142341e+00  1.173984503142341e+00  1.173984503142341e+00 -0.000000000000000e+00 -3.528345676057917e-01  9.356857206896095e-01  0.000000000000000e+00
60  1.173984503142341e+00  1.173984503142341e+00  1.173984503142341e+00 -0.000000000000000e+00 -4.729453160980691e-02  9.988809875454679e-01  0.000000000000000e+00
61  1.173984503142341e+00  1.173984503142341e+00  1.173984503142341e+00 -0.000000000000000e+00  2.628495492554134e-01  9.648368330739794e-01 -0.000000000000000e+00
62  1.173984503142341e+00  1.173984503142341e+00  1.173984503142341e+00  0.000000000000000e+00  5.474056587962844e-01  8.368673997222058e-01  0.000000000000000e+00
63  1.173984503142341e+00  1.173984503142341e+00  1.173984503142341e+00  0.000000000000000e+00  7.786727277443773e-01  6.274303013619367e-01  0.000000000000000e+00
64  1.173984503142341e+00  1.173984503142341e+00  1.173984503142341e+00  0.000000000000000e+00  9.341372872911156e-01  3.569138950676982e-01  0.000000000000000e+00
65  1.173984503142341e+00  1.173984503142341e+00  1.173984503142341e+00  0.000000000000000e+00  9.986651182495035e-01  5.165250808726692e-02  0.000000000000000e+00
66  1.173984503142341e+00  1.173984503142341e+00  1.173984503142341e+00  0.000000000000000e+00  9.659745424014774e-01 -2.586371656051319e-01  0.000000000000000e+00
67  1.173984503142341e+00  1.173984503142341e+00  1.173984503142341e+00  0.000000000000000e+00  8.392479335412677e-01 -5.437489365936379e-01  0.000000000000000e+00
68  1.173984503142341e+00  1.173984503142341e+00  1.173984503142341e+00  0.000000000000000e+00  6.308219186204236e-01 -7.759276428817623e-01  0.000000000000000e+00
69  1.173984503142341e+00  1.173984503142341e+00  1.173984503142341e+00 -0.000000000000000e+00 -3.609864274035228e-01  9.325710692652016e-01  0.000000000000000e+00
70  1.173984503142341e+00  1.173984503142341e+00  1.173984503142341e+00 -0.000000000000000e+00 -5.600950117542850e-02  9.984302358092326e-01  0.000000000000000e+00
71  1.173984503142341e+00  1.173984503142341e+00  1.173984503142341e+00 -0.000000000000000e+00  2.544198578760347e-01  9.670938609661104e-01 -0.000000000000000e+00
72  1.173984503142341e+00  1.173984503142341e+00  1.173984503142341e+00  0.000000000000000e+00  5.400818621950338e-01  8.416124892894262e-01  0.000000000000000e+00