LAMMPS (29 Sep 2021)
  using 1 OpenMP thread(s) per MPI task

units lj

dimension 3

newton off

boundary  p p p

atom_style hybrid bond ellipsoid oxdna
WARNING: Write_data command requires newton on to preserve 3'->5' bond polarity (src/CG-DNA/atom_vec_oxdna.cpp:52)
WARNING: Atom style hybrid defines both, per-type and per-atom masses; both must be set, but only per-atom masses will be used (src/atom_vec_hybrid.cpp:157)
atom_modify sort 0 1.0

# Pair interactions require lists of neighbours to be calculated
neighbor 1.0 bin
neigh_modify every 1 delay 0 check yes

read_data data
Reading data file ...
  orthogonal box = (-25.739900 -25.739900 -25.739900) to (25.739800 25.739800 25.739800)
  1 by 1 by 1 MPI processor grid
  reading atoms ...
  80 atoms
  reading velocities ...
  80 velocities
  80 ellipsoids
  scanning bonds ...
  2 = max bonds/atom
  reading bonds ...
  78 bonds
Finding 1-2 1-3 1-4 neighbors ...
  special bond factors lj:    0        0        0       
  special bond factors coul:  0        0        0       
     2 = max # of 1-2 neighbors
     2 = max # of 1-3 neighbors
     4 = max # of 1-4 neighbors
     6 = max # of special neighbors
  special bonds CPU = 0.000 seconds
  read_data CPU = 0.020 seconds

set atom * mass 3.1575
Setting atom values ...
  80 settings made for mass

group all type 1 4
80 atoms in group all

# oxDNA bond interactions - FENE backbone
bond_style oxdna2/fene
bond_coeff * 2.0 0.25 0.7564
special_bonds lj 0 1 1
Finding 1-2 1-3 1-4 neighbors ...
  special bond factors lj:    0        1        1       
  special bond factors coul:  0        0        0       
     2 = max # of 1-2 neighbors
     2 = max # of 1-3 neighbors
     4 = max # of 1-4 neighbors
     6 = max # of special neighbors
  special bonds CPU = 0.000 seconds

# oxDNA pair interactions
pair_style hybrid/overlay oxdna2/excv oxdna2/stk oxdna2/hbond oxdna2/xstk oxdna2/coaxstk oxdna2/dh
pair_coeff * * oxdna2/excv 2.0 0.7 0.675 2.0 0.515 0.5 2.0 0.33 0.32
pair_coeff * * oxdna2/stk seqdep 0.1 1.3523 2.6717 6.0 0.4 0.9 0.32 0.6 1.3 0 0.8 0.9 0 0.95 0.9 0 0.95 2.0 0.65 2.0 0.65
pair_coeff * * oxdna2/hbond seqdep 0.0 8.0 0.4 0.75 0.34 0.7 1.5 0 0.7 1.5 0 0.7 1.5 0 0.7 0.46 3.141592653589793 0.7 4.0 1.5707963267948966 0.45 4.0 1.5707963267948966 0.45
pair_coeff 1 4 oxdna2/hbond seqdep 1.0678 8.0 0.4 0.75 0.34 0.7 1.5 0 0.7 1.5 0 0.7 1.5 0 0.7 0.46 3.141592653589793 0.7 4.0 1.5707963267948966 0.45 4.0 1.5707963267948966 0.45
pair_coeff 2 3 oxdna2/hbond seqdep 1.0678 8.0 0.4 0.75 0.34 0.7 1.5 0 0.7 1.5 0 0.7 1.5 0 0.7 0.46 3.141592653589793 0.7 4.0 1.5707963267948966 0.45 4.0 1.5707963267948966 0.45
pair_coeff * * oxdna2/xstk 47.5 0.575 0.675 0.495 0.655 2.25 0.791592653589793 0.58 1.7 1.0 0.68 1.7 1.0 0.68 1.5 0 0.65 1.7 0.875 0.68 1.7 0.875 0.68
pair_coeff * * oxdna2/coaxstk 58.5 0.4 0.6 0.22 0.58 2.0 2.891592653589793 0.65 1.3 0 0.8 0.9 0 0.95 0.9 0 0.95 40.0 3.116592653589793
pair_coeff * * oxdna2/dh 0.1 0.15 0.815

#fix 1 all nve/dot
fix 1 all nve/dotc/langevin 0.1 0.1 100.0 30362 angmom 1000
#fix 1 all nve/asphere
#fix 2 all langevin 0.1 0.1 0.03 457145 angmom 10

timestep 0.01

# Added by RK
compute hbondEnergy all pair oxdna2/hbond
compute excvEnergy all pair oxdna2/excv
compute stkEnergy all pair oxdna2/stk
compute xstkEnergy all pair oxdna2/xstk
compute coaxstkEnergy all pair oxdna2/coaxstk
compute dhEnergy all pair oxdna2/dh
compute quat all property/atom quatw quati quatj quatk
# End: added by RK

compute		xu all property/atom xu
compute		yu all property/atom yu
variable	dx equal -0.5*(c_xu[39]+c_xu[42])
variable	dy equal -0.5*(c_yu[39]+c_yu[42])
thermo_style	custom v_dx v_dy
run		0
Neighbor list info ...
  update every 1 steps, delay 0 steps, check yes
  max neighbors/atom: 2000, page size: 100000
  master list distance cutoff = 5.2019411
  ghost atom cutoff = 5.2019411
  binsize = 2.6009705, bins = 20 20 20
  5 neighbor lists, perpetual/occasional/extra = 5 0 0
  (1) pair oxdna2/excv, perpetual
      attributes: half, newton off
      pair build: half/bin/newtoff
      stencil: full/bin/3d
      bin: standard
  (2) pair oxdna2/hbond, perpetual, copy from (1)
      attributes: half, newton off
      pair build: copy
      stencil: none
      bin: none
  (3) pair oxdna2/xstk, perpetual, copy from (1)
      attributes: half, newton off
      pair build: copy
      stencil: none
      bin: none
  (4) pair oxdna2/coaxstk, perpetual, copy from (1)
      attributes: half, newton off
      pair build: copy
      stencil: none
      bin: none
  (5) pair oxdna2/dh, perpetual, copy from (1)
      attributes: half, newton off
      pair build: copy
      stencil: none
      bin: none
Per MPI rank memory allocation (min/avg/max) = 7.710 | 7.710 | 7.710 Mbytes
v_dx v_dy 
    -2.71054    4.5889718 
Loop time of 1.19209e-06 on 1 procs for 0 steps with 80 atoms

167.8% CPU use with 1 MPI tasks x 1 OpenMP threads

MPI task timing breakdown:
Section |  min time  |  avg time  |  max time  |%varavg| %total
---------------------------------------------------------------
Pair    | 0          | 0          | 0          |   0.0 |  0.00
Bond    | 0          | 0          | 0          |   0.0 |  0.00
Neigh   | 0          | 0          | 0          |   0.0 |  0.00
Comm    | 0          | 0          | 0          |   0.0 |  0.00
Output  | 0          | 0          | 0          |   0.0 |  0.00
Modify  | 0          | 0          | 0          |   0.0 |  0.00
Other   |            | 1.192e-06  |            |       |100.00

Nlocal:        80.0000 ave          80 max          80 min
Histogram: 1 0 0 0 0 0 0 0 0 0
Nghost:        8.00000 ave           8 max           8 min
Histogram: 1 0 0 0 0 0 0 0 0 0
Neighs:        1678.00 ave        1678 max        1678 min
Histogram: 1 0 0 0 0 0 0 0 0 0

Total # of neighbors = 1678
Ave neighs/atom = 20.975000
Ave special neighs/atom = 5.7000000
Neighbor list builds = 0
Dangerous builds = 0
displace_atoms	all move v_dx v_dy 0 units box
Displacing atoms ...
thermo_style	one

group           blockA1 id <= 2
2 atoms in group blockA1
group           blockA2 id >= 79
2 atoms in group blockA2
group		blockA union blockA1 blockA2
4 atoms in group blockA
group           fB id 39 42
2 atoms in group fB
group		torque id <> 39 42
4 atoms in group torque
fix 		tetherA blockA spring/self 1217.58 xyz
variable	fxB equal -1217.58*(c_xu[39]+c_xu[42])
variable	fyB equal -1217.58*(c_yu[39]+c_yu[42])
fix             fB fB addforce v_fxB v_fyB 0.0205634 ## 2pN/2 = 1pN
fix             torque torque addtorque 0 0 0.241412 ## 10 pN·nm

variable        tns equal time*3.03e-3
variable        cpuh equal cpuremain/3600
# thermo_style    custom v_tns temp evdwl ecoul ebond eangle edihed pe v_cpuh
thermo_style    custom v_tns temp evdwl ecoul ebond eangle edihed pe v_cpuh c_hbondEnergy c_excvEnergy c_stkEnergy c_xstkEnergy c_coaxstkEnergy c_dhEnergy
thermo		660

timestep	0.01


# dump            coord all custom 660 dump.lammpstrj id type xu yu zu
# dump_modify	coord sort id

# Changed by RK to permit conversion via TacoxDNA
dump 4 all custom 660 filename.dat     id mol type x y z ix iy iz vx vy vz     c_quat[1] c_quat[2] c_quat[3] c_quat[4]     angmomx angmomy angmomz
dump_modify 4 sort id
dump_modify 4 format line "    %d %d %d %22.15le %22.15le %22.15le     %d %d %d %22.15le %22.15le %22.15le     %22.15le %22.15le %22.15le %22.15le     %22.15le %22.15le %22.15le"


run 		66000
Per MPI rank memory allocation (min/avg/max) = 10.11 | 10.11 | 10.11 Mbytes
v_tns Temp E_vdwl E_coul E_bond E_angle E_dihed PotEng v_cpuh c_hbondEnergy c_excvEnergy c_stkEnergy c_xstkEnergy c_coaxstkEnergy c_dhEnergy 
           0            0   -1.6539016            0  0.011609095            0            0   -1.6422925            0   -0.4708304            0   -1.0501531  -0.17510681            0  0.042188703 
    0.019998  0.083248118   -1.5134602            0  0.045493027            0            0   -1.4679671 0.0072308546  -0.33908848            0   -1.0904932  -0.12520089            0   0.04132246 
    0.039996   0.10738473   -1.5455128            0  0.034034965            0            0   -1.5114778 0.0070655271  -0.34286516            0   -1.1225531   -0.1228802            0  0.042785688 
    0.059994  0.082454918   -1.4845851            0  0.044372491            0            0   -1.4402126 0.0068310822  -0.33934101            0   -1.0705914  -0.11512729            0   0.04047466 
    0.079992   0.10467329   -1.5300488            0  0.043364337            0            0   -1.4866844 0.0067689212  -0.36458079            0   -1.0839817  -0.12243361            0   0.04094734 
     0.09999   0.10015741   -1.5094707            0  0.042483546            0            0   -1.4669871 0.0067132016  -0.32991722            0   -1.1108979  -0.11254304            0  0.043887425 
    0.119988  0.093814777   -1.5304762            0  0.035500697            0            0   -1.4949755 0.0066755713  -0.34743809            0    -1.104661  -0.12016941            0  0.041792369 
    0.139986   0.10094092   -1.5040359            0  0.026305935            0            0     -1.47773  0.006621021  -0.34529371            0   -1.0758041  -0.12311706            0  0.040178976 
    0.159984  0.082052675   -1.5078495            0  0.035093234            0            0   -1.4727562  0.006552103  -0.34302269            0    -1.092485  -0.11339058            0  0.041048826 
    0.179982   0.10118334   -1.5094297            0   0.03118529            0            0   -1.4782444 0.0064824584  -0.34446342            0   -1.0936749  -0.11321231            0  0.041921002 
     0.19998   0.10300758    -1.549688            0  0.038044955            0            0   -1.5116431 0.0064170277  -0.35300137            0   -1.1184701   -0.1216899            0  0.043473368 
    0.219978  0.099565516   -1.5350386            0  0.038518524            0            0     -1.49652 0.0063537148  -0.33423366            0   -1.1239727  -0.12061593            0   0.04378372 
    0.239976  0.087532948   -1.5471696            0  0.045785007            0            0   -1.5013846 0.0062845998  -0.34448878            0   -1.1184962  -0.12568468            0  0.041500086 
    0.259974  0.091003623   -1.5671233            0  0.054439192            0            0   -1.5126841   0.00620745  -0.34735438            0   -1.1383658  -0.12284941            0  0.041446279 
    0.279972   0.10654362   -1.5226803            0  0.048409596            0            0   -1.4742707 0.0061365166  -0.34585621            0   -1.1092686  -0.10893056            0  0.041375119 
     0.29997   0.10740786   -1.5275689            0  0.049054375            0            0   -1.4785145 0.0060745409  -0.34803099            0   -1.1034682   -0.1175025            0  0.041432799 
    0.319968   0.09713925   -1.5084332            0  0.051272371            0            0   -1.4571609 0.0060041028  -0.32845218            0   -1.1070093   -0.1137448            0  0.040773023 
    0.339966  0.095647868    -1.523945            0  0.046702423            0            0   -1.4772426 0.0059305955  -0.34467426            0   -1.0969076  -0.12213727            0  0.039774089 
    0.359964   0.11018711   -1.5378886            0  0.039369477            0            0   -1.4985192 0.0058571638  -0.32886777            0   -1.1319226   -0.1174713            0  0.040372985 
    0.379962   0.11791424   -1.5345142            0  0.038977126            0            0   -1.4955371 0.0057867869  -0.34565292            0   -1.1157514  -0.11360315            0  0.040493298 
     0.39996  0.095331128   -1.5413373            0   0.03714607            0            0   -1.5041912 0.0057188323   -0.3549769            0   -1.1009298  -0.12582518            0  0.040394589 
    0.419958   0.11377133   -1.5379005            0  0.042943345            0            0   -1.4949571 0.0056491481  -0.32559245            0   -1.1332468  -0.12055862            0  0.041497341 
    0.439956   0.08636564   -1.4726196            0  0.043535882            0            0   -1.4290838 0.0055771496  -0.30757999            0   -1.1014566  -0.10514578            0   0.04156269 
    0.459954   0.10113531   -1.5462315            0  0.046957166            0            0   -1.4992743 0.0055043172  -0.34610844            0   -1.1210008  -0.11951882            0  0.040396611 
    0.479952   0.10719775   -1.5745737            0  0.051049006            0            0   -1.5235247 0.0054401768  -0.35438555            0   -1.1419379  -0.11877169            0  0.040521382 
     0.49995   0.10717869   -1.5327668            0  0.039097839            0            0    -1.493669 0.0053695059  -0.33406147            0   -1.1262804    -0.111719            0  0.039294103 
    0.519948  0.089528828   -1.5420395            0  0.052369823            0            0   -1.4896697 0.0052989361  -0.36083517            0   -1.1015115  -0.12018954            0  0.040496754 
    0.539946   0.10192458   -1.5339874            0  0.049257175            0            0   -1.4847302 0.0052285124  -0.35859304            0   -1.0963917  -0.11827577            0  0.039273121 
    0.559944   0.11569836   -1.5298437            0  0.031945247            0            0   -1.4978984 0.0051568643  -0.35218214            0   -1.0890663   -0.1283661            0  0.039770884 
    0.579942   0.10276356   -1.5248145            0  0.044343645            0            0   -1.4804708 0.0050839632  -0.34567794            0   -1.0962076  -0.12167132            0  0.038742409 
     0.59994   0.11232864   -1.5205169            0  0.045268789            0            0   -1.4752481 0.0050116338   -0.3486752            0   -1.0909882  -0.12175508            0  0.040901503 
    0.619938    0.0986202   -1.5145436            0  0.051329926            0            0   -1.4632137  0.004940196  -0.32864907 2.7404445e-05   -1.1086443  -0.11764292            0   0.04036521 
    0.639936   0.10206921   -1.5262463            0  0.052645909            0            0   -1.4736004 0.0048688768  -0.32512331            0   -1.1320791  -0.10959755            0  0.040553668 
    0.659934   0.11236769    -1.537817            0  0.040031952            0            0    -1.497785 0.0048001158  -0.33573155            0   -1.1276745  -0.11569759            0  0.041286679 
    0.679932   0.10705384   -1.5245995            0  0.050742351            0            0   -1.4738572 0.0047292575  -0.33633741            0   -1.1234412  -0.10679166            0  0.041970747 
     0.69993   0.11604538   -1.5320577            0  0.049789499            0            0   -1.4822682 0.0046595586  -0.33060736            0   -1.1292595  -0.11257779            0  0.040386918 
    0.719928   0.10400288   -1.5494083            0  0.044439291            0            0    -1.504969 0.0045909996  -0.34618972            0   -1.1376758  -0.10977542            0   0.04423261 
    0.739926    0.1093264   -1.5478328            0  0.047841282            0            0   -1.4999916  0.004522116  -0.33167526            0   -1.1492652  -0.10705065            0  0.040158231 
    0.759924    0.1049661   -1.5082077            0  0.040455979            0            0   -1.4677517 0.0044531967  -0.33658853            0   -1.1011521  -0.11230236            0  0.041835327 
    0.779922   0.11130053   -1.5400962            0  0.038168063            0            0   -1.5019282 0.0043823265  -0.34391861            0    -1.122015  -0.11494666            0  0.040784018 
     0.79992   0.10004665   -1.4835252            0  0.042770905            0            0   -1.4407543 0.0043120988  -0.31322722            0   -1.1048391  -0.10642598            0  0.040967082 
    0.819918   0.11088926   -1.5385431            0  0.037990208            0            0   -1.5005529 0.0042416607  -0.34272437            0   -1.1149542  -0.12054392            0  0.039679409 
    0.839916   0.10211452   -1.5416622            0  0.050403671            0            0   -1.4912586 0.0041702311  -0.34542752            0   -1.1157592   -0.1215428            0  0.041067308 
    0.859914  0.098535247   -1.5269155            0  0.050181086            0            0   -1.4767344 0.0040994419  -0.34951551            0   -1.1074409  -0.11097241            0  0.041013346 
    0.879912  0.099908247     -1.49151            0  0.051921854            0            0   -1.4395881 0.0040272198  -0.32960298            0   -1.0832422  -0.11911374            0  0.040448926 
     0.89991   0.10166099   -1.5390639            0  0.044592637            0            0   -1.4944713 0.0039539097  -0.34693844 0.00011877369   -1.1092874  -0.12173035            0  0.038773516 
    0.919908  0.097487451   -1.5430916            0  0.056990553            0            0    -1.486101  0.003880919  -0.33561281            0   -1.1295438  -0.11864066            0  0.040705632 
    0.939906   0.10497467   -1.5266129            0  0.045621893            0            0    -1.480991 0.0038093118  -0.32899001            0   -1.1262288  -0.11126221            0  0.039868146 
    0.959904   0.10186955   -1.4906217            0  0.036296881            0            0   -1.4543249 0.0037375452  -0.33525625 0.00038523842   -1.0918553   -0.1036185            0  0.039723094 
    0.979902  0.094541102   -1.5409637            0  0.054093605            0            0   -1.4868701 0.0036657291  -0.33809812            0   -1.1295413  -0.11382426            0  0.040499976 
      0.9999  0.093622448   -1.5383235            0  0.055204737            0            0   -1.4831187   0.00359576  -0.35602059            0   -1.1075616  -0.11514586            0  0.040404563 
    1.019898  0.084697604   -1.5444968            0  0.041155484            0            0   -1.5033413 0.0035229591  -0.35297315            0   -1.1140721  -0.11701797            0   0.03956643 
    1.039896   0.11505638   -1.5033263            0   0.04349897            0            0   -1.4598273 0.0034511621  -0.33369825            0   -1.1001777  -0.10820863            0  0.038758285 
    1.059894  0.098369952   -1.4723295            0  0.040196785            0            0   -1.4321327 0.0033783588   -0.3311705            0   -1.0766467   -0.1028739            0    0.0383616 
    1.079892  0.096346668    -1.524158            0  0.053348915            0            0   -1.4708091 0.0033058416  -0.34079245            0   -1.1134803  -0.11168012            0  0.041794911 
     1.09989  0.092373939   -1.5368664            0  0.047844813            0            0   -1.4890216 0.0032316693  -0.33472852            0   -1.1255057  -0.11725404            0  0.040621814 
    1.119888   0.12010405   -1.5519386            0  0.047923432            0            0   -1.5040152 0.0031592151  -0.34772835            0   -1.1181293  -0.12599271            0  0.039911791 
    1.139886  0.098658504   -1.5165808            0  0.058311429            0            0   -1.4582694 0.0030869413  -0.34124569            0   -1.0992822  -0.11546363            0  0.039410737 
    1.159884  0.088833377   -1.5408998            0  0.040079434            0            0   -1.5008204 0.0030152007  -0.35296346            0   -1.1079099   -0.1196925            0  0.039666077 
    1.179882   0.12014547   -1.5348561            0  0.053235178            0            0   -1.4816209 0.0029432746  -0.35362127            0   -1.1030778  -0.11858257            0  0.040425495 
     1.19988   0.10828848   -1.5330047            0   0.04760234            0            0   -1.4854024 0.0028687998  -0.34580556            0   -1.1190097  -0.10861009            0  0.040420595 
    1.219878   0.13014905   -1.5321724            0  0.043158871            0            0   -1.4890135 0.0027948561  -0.33392818            0   -1.1241477  -0.11380492            0  0.039708392 
    1.239876   0.11133188   -1.5404416            0   0.03873547            0            0   -1.5017061 0.0027227121  -0.33622143            0   -1.1236751  -0.12025302            0  0.039707929 
    1.259874   0.10754764   -1.4978988            0  0.037448595            0            0   -1.4604502 0.0026512291  -0.32268437            0   -1.0983117   -0.1178415            0  0.040938781 
    1.279872   0.10829055   -1.5367092            0  0.053710048            0            0   -1.4829991   0.00258022  -0.32809511            0   -1.1368998  -0.11328689            0  0.041572678 
     1.29987   0.10343375    -1.546677            0  0.052980883            0            0   -1.4936961  0.002509087  -0.32545329            0   -1.1478519  -0.11574944            0  0.042377638 
    1.319868  0.089706865    -1.544324            0  0.048330289            0            0   -1.4959937 0.0024365098  -0.35175428            0   -1.1115977  -0.11955842            0  0.038586434 
    1.339866    0.1134671   -1.5026961            0  0.036085919            0            0   -1.4666102 0.0023645675  -0.33043283            0   -1.0915509  -0.12051838            0  0.039805976 
    1.359864  0.099911622   -1.5211196            0  0.049484816            0            0   -1.4716348 0.0022928089  -0.33428133            0   -1.1139487  -0.11375495            0  0.040865363 
    1.379862   0.10258284   -1.4997557            0  0.053542259            0            0   -1.4462134 0.0022218541  -0.33563689            0   -1.0841737  -0.11997587            0  0.040030838 
     1.39986   0.10412206   -1.5421688            0  0.040669345            0            0   -1.5014994 0.0021504681  -0.34822448            0   -1.1204414  -0.11473873            0  0.041235849 
    1.419858   0.09946814   -1.5510432            0  0.048691628            0            0   -1.5023516 0.0020780385  -0.35453489            0   -1.1158665  -0.12168738            0  0.041045519 
    1.439856   0.11013667   -1.5666399            0   0.04531444            0            0   -1.5213255  0.002006456   -0.3411504            0    -1.140896  -0.12426395            0  0.039670423 
    1.459854   0.10090072   -1.5281977            0  0.038816382            0            0   -1.4893814  0.001933151  -0.32636622            0   -1.1253232  -0.11729385            0  0.040785574 
    1.479852  0.099882587   -1.4936758            0  0.052063447            0            0   -1.4416123 0.0018615599  -0.31385077            0   -1.1160782  -0.10413496            0  0.040388207 
     1.49985   0.11524005   -1.5132976            0  0.042613918            0            0   -1.4706837 0.0017901017  -0.33988805            0   -1.1048751  -0.11107631            0  0.042541833 
    1.519848   0.11384261   -1.5062201            0  0.038810427            0            0   -1.4674097 0.0017192845  -0.33639137            0   -1.0922212  -0.11723072            0  0.039623136 
    1.539846   0.10720432   -1.5079594            0  0.040004968            0            0   -1.4679544 0.0016477678  -0.33092862            0   -1.1073936  -0.10981737            0  0.040180213 
    1.559844  0.098239419      -1.5173            0  0.038616749            0            0   -1.4786833 0.0015764223  -0.33369118            0   -1.1133369  -0.11134394            0  0.041071995 
    1.579842   0.10231437   -1.5421128            0  0.046340113            0            0   -1.4957727  0.001504431  -0.34926137            0   -1.1107904  -0.12148054            0   0.03941946 
     1.59984  0.094364294   -1.5472232            0  0.049105903            0            0   -1.4981173 0.0014316665  -0.36030791            0   -1.1149104  -0.11148932            0  0.039484408 
    1.619838   0.10627313   -1.5307099            0  0.049955344            0            0   -1.4807546 0.0013595758  -0.35504404            0   -1.0857057  -0.13032383            0  0.040363607 
    1.639836   0.10935245   -1.5257614            0  0.031742943            0            0   -1.4940185 0.0012879573  -0.33620214            0   -1.1217122  -0.10918435            0   0.04133733 
    1.659834   0.11967801   -1.5410169            0  0.062091611            0            0   -1.4789252 0.0012164058  -0.34057359            0    -1.117552  -0.12276981            0  0.039878564 
    1.679832    0.1083203   -1.5437842            0  0.048730149            0            0   -1.4950541 0.0011449796  -0.34110861            0   -1.1190977  -0.12345812            0  0.039880239 
     1.69983   0.10061487   -1.5555585            0  0.050697985            0            0   -1.5048605 0.0010735318  -0.34410796            0   -1.1414839  -0.10931942            0  0.039352741 
    1.719828   0.10060948   -1.5414703            0   0.05009892            0            0   -1.4913714 0.0010017538   -0.3523849            0   -1.1064271  -0.12171969            0  0.039061391 
    1.739826  0.089328109   -1.5741568            0  0.046334152            0            0   -1.5278227 0.00093011862  -0.34154279            0   -1.1427527  -0.13120388            0  0.041342498 
    1.759824  0.090924562   -1.5250868            0  0.054343953            0            0   -1.4707429 0.00085855704  -0.33826937            0   -1.1152303  -0.11176151            0  0.040174328 
    1.779822  0.093970455   -1.5243626            0  0.036438564            0            0    -1.487924 0.00078704128  -0.32982489            0   -1.1162758  -0.11855364            0  0.040291703 
     1.79982   0.10518552   -1.5046715            0  0.044070076            0            0   -1.4606014 0.00071557155   -0.3336532            0   -1.0931957  -0.11866827            0  0.040845696 
    1.819818  0.091551393   -1.5472338            0  0.039934144            0            0   -1.5072997 0.00064401742  -0.34146077            0   -1.1315167  -0.11512694            0  0.040870585 
    1.839816   0.10669082   -1.5392994            0   0.03747698            0            0   -1.5018224 0.00057239592   -0.3393042            0   -1.1236422  -0.11618043            0  0.039827366 
    1.859814   0.10523889   -1.5421038            0  0.049363788            0            0     -1.49274 0.00050082209  -0.34036378            0   -1.1253677  -0.11786718            0  0.041494889 
    1.879812   0.10841599   -1.5523428            0  0.042311926            0            0   -1.5100309 0.00042934199  -0.35022386            0   -1.1172437  -0.12407507            0  0.039199854 
     1.89981  0.095838762   -1.5643224            0  0.048753888            0            0   -1.5155685 0.00035776756   -0.3464495            0   -1.1384839  -0.12070174            0   0.04131281 
    1.919808   0.09966142   -1.5090197            0  0.044934217            0            0   -1.4640855 0.00028621792  -0.32240349            0   -1.1163554   -0.1109369            0  0.040676047 
    1.939806   0.10527169   -1.5025709            0  0.044358412            0            0   -1.4582125 0.00021466108  -0.33264676            0   -1.0916576  -0.11787101            0  0.039604434 
    1.959804   0.10582066   -1.5174697            0  0.039552422            0            0   -1.4779173 0.00014311332  -0.32406009            0   -1.1258489  -0.10746018            0   0.03989948 
    1.979802   0.11200824   -1.5464073            0  0.056777883            0            0   -1.4896294 7.1567259e-05   -0.3551705            0   -1.1102227  -0.12041908            0  0.039404941 
      1.9998   0.11615127   -1.5569062            0  0.047895316            0            0   -1.5090109            0  -0.35036503            0   -1.1217316  -0.12441492            0  0.039605289 
Loop time of 25.7661 on 1 procs for 66000 steps with 80 atoms

Performance: 2213142.228 tau/day, 2561.507 timesteps/s
99.7% CPU use with 1 MPI tasks x 1 OpenMP threads

MPI task timing breakdown:
Section |  min time  |  avg time  |  max time  |%varavg| %total
---------------------------------------------------------------
Pair    | 22.345     | 22.345     | 22.345     |   0.0 | 86.72
Bond    | 0.30587    | 0.30587    | 0.30587    |   0.0 |  1.19
Neigh   | 0.012448   | 0.012448   | 0.012448   |   0.0 |  0.05
Comm    | 0.018827   | 0.018827   | 0.018827   |   0.0 |  0.07
Output  | 0.042639   | 0.042639   | 0.042639   |   0.0 |  0.17
Modify  | 3.0121     | 3.0121     | 3.0121     |   0.0 | 11.69
Other   |            | 0.02938    |            |       |  0.11

Nlocal:        80.0000 ave          80 max          80 min
Histogram: 1 0 0 0 0 0 0 0 0 0
Nghost:        9.00000 ave           9 max           9 min
Histogram: 1 0 0 0 0 0 0 0 0 0
Neighs:        1607.00 ave        1607 max        1607 min
Histogram: 1 0 0 0 0 0 0 0 0 0

Total # of neighbors = 1607
Ave neighs/atom = 20.087500
Ave special neighs/atom = 5.7000000
Neighbor list builds = 195
Dangerous builds = 0

shell           touch end

Total wall time: 0:00:25
