LAMMPS (29 Sep 2021)
  using 1 OpenMP thread(s) per MPI task

units lj

dimension 3

newton off

boundary  p p p

atom_style hybrid bond ellipsoid oxdna
WARNING: Write_data command requires newton on to preserve 3'->5' bond polarity (src/CG-DNA/atom_vec_oxdna.cpp:52)
WARNING: Atom style hybrid defines both, per-type and per-atom masses; both must be set, but only per-atom masses will be used (src/atom_vec_hybrid.cpp:157)
atom_modify sort 0 1.0

# Pair interactions require lists of neighbours to be calculated
neighbor 1.0 bin
neigh_modify every 1 delay 0 check yes

read_data data
Reading data file ...
  orthogonal box = (-11.739900 -11.739900 -11.739900) to (11.739800 11.739800 11.739800)
  1 by 1 by 1 MPI processor grid
  reading atoms ...
  80 atoms
  reading velocities ...
  80 velocities
  80 ellipsoids
  scanning bonds ...
  2 = max bonds/atom
  reading bonds ...
  78 bonds
Finding 1-2 1-3 1-4 neighbors ...
  special bond factors lj:    0        0        0       
  special bond factors coul:  0        0        0       
     2 = max # of 1-2 neighbors
     2 = max # of 1-3 neighbors
     4 = max # of 1-4 neighbors
     6 = max # of special neighbors
  special bonds CPU = 0.000 seconds
  read_data CPU = 0.002 seconds

set atom * mass 3.1575
Setting atom values ...
  80 settings made for mass

group all type 1 4
80 atoms in group all

# oxDNA bond interactions - FENE backbone
bond_style oxdna2/fene
bond_coeff * 2.0 0.25 0.7564
special_bonds lj 0 1 1
Finding 1-2 1-3 1-4 neighbors ...
  special bond factors lj:    0        1        1       
  special bond factors coul:  0        0        0       
     2 = max # of 1-2 neighbors
     2 = max # of 1-3 neighbors
     4 = max # of 1-4 neighbors
     6 = max # of special neighbors
  special bonds CPU = 0.000 seconds

# oxDNA pair interactions
pair_style hybrid/overlay oxdna2/excv oxdna2/stk oxdna2/hbond oxdna2/xstk oxdna2/coaxstk oxdna2/dh
pair_coeff * * oxdna2/excv 2.0 0.7 0.675 2.0 0.515 0.5 2.0 0.33 0.32
pair_coeff * * oxdna2/stk seqdep 0.1 1.3523 2.6717 6.0 0.4 0.9 0.32 0.6 1.3 0 0.8 0.9 0 0.95 0.9 0 0.95 2.0 0.65 2.0 0.65
pair_coeff * * oxdna2/hbond seqdep 0.0 8.0 0.4 0.75 0.34 0.7 1.5 0 0.7 1.5 0 0.7 1.5 0 0.7 0.46 3.141592653589793 0.7 4.0 1.5707963267948966 0.45 4.0 1.5707963267948966 0.45
pair_coeff 1 4 oxdna2/hbond seqdep 1.0678 8.0 0.4 0.75 0.34 0.7 1.5 0 0.7 1.5 0 0.7 1.5 0 0.7 0.46 3.141592653589793 0.7 4.0 1.5707963267948966 0.45 4.0 1.5707963267948966 0.45
pair_coeff 2 3 oxdna2/hbond seqdep 1.0678 8.0 0.4 0.75 0.34 0.7 1.5 0 0.7 1.5 0 0.7 1.5 0 0.7 0.46 3.141592653589793 0.7 4.0 1.5707963267948966 0.45 4.0 1.5707963267948966 0.45
pair_coeff * * oxdna2/xstk 47.5 0.575 0.675 0.495 0.655 2.25 0.791592653589793 0.58 1.7 1.0 0.68 1.7 1.0 0.68 1.5 0 0.65 1.7 0.875 0.68 1.7 0.875 0.68
pair_coeff * * oxdna2/coaxstk 58.5 0.4 0.6 0.22 0.58 2.0 2.891592653589793 0.65 1.3 0 0.8 0.9 0 0.95 0.9 0 0.95 40.0 3.116592653589793
pair_coeff * * oxdna2/dh 0.1 0.15 0.815

#fix 1 all nve/dot
fix 1 all nve/dotc/langevin 0.1 0.1 100.0 30362 angmom 1000
#fix 1 all nve/asphere
#fix 2 all langevin 0.1 0.1 0.03 457145 angmom 10

timestep 0.01

# Added by RK
compute hbondEnergy all pair oxdna2/hbond
compute excvEnergy all pair oxdna2/excv
compute stkEnergy all pair oxdna2/stk
compute xstkEnergy all pair oxdna2/xstk
compute coaxstkEnergy all pair oxdna2/coaxstk
compute dhEnergy all pair oxdna2/dh
compute quat all property/atom quatw quati quatj quatk
# End: added by RK

compute		xu all property/atom xu
compute		yu all property/atom yu
variable	dx equal -0.5*(c_xu[39]+c_xu[42])
variable	dy equal -0.5*(c_yu[39]+c_yu[42])
thermo_style	custom v_dx v_dy
run		0
Neighbor list info ...
  update every 1 steps, delay 0 steps, check yes
  max neighbors/atom: 2000, page size: 100000
  master list distance cutoff = 5.2019411
  ghost atom cutoff = 5.2019411
  binsize = 2.6009705, bins = 10 10 10
  5 neighbor lists, perpetual/occasional/extra = 5 0 0
  (1) pair oxdna2/excv, perpetual
      attributes: half, newton off
      pair build: half/bin/newtoff
      stencil: full/bin/3d
      bin: standard
  (2) pair oxdna2/hbond, perpetual, copy from (1)
      attributes: half, newton off
      pair build: copy
      stencil: none
      bin: none
  (3) pair oxdna2/xstk, perpetual, copy from (1)
      attributes: half, newton off
      pair build: copy
      stencil: none
      bin: none
  (4) pair oxdna2/coaxstk, perpetual, copy from (1)
      attributes: half, newton off
      pair build: copy
      stencil: none
      bin: none
  (5) pair oxdna2/dh, perpetual, copy from (1)
      attributes: half, newton off
      pair build: copy
      stencil: none
      bin: none
Per MPI rank memory allocation (min/avg/max) = 7.778 | 7.778 | 7.778 Mbytes
v_dx v_dy 
    -2.71054    4.5889718 
Loop time of 2.14577e-06 on 1 procs for 0 steps with 80 atoms

46.6% CPU use with 1 MPI tasks x 1 OpenMP threads

MPI task timing breakdown:
Section |  min time  |  avg time  |  max time  |%varavg| %total
---------------------------------------------------------------
Pair    | 0          | 0          | 0          |   0.0 |  0.00
Bond    | 0          | 0          | 0          |   0.0 |  0.00
Neigh   | 0          | 0          | 0          |   0.0 |  0.00
Comm    | 0          | 0          | 0          |   0.0 |  0.00
Output  | 0          | 0          | 0          |   0.0 |  0.00
Modify  | 0          | 0          | 0          |   0.0 |  0.00
Other   |            | 2.146e-06  |            |       |100.00

Nlocal:        80.0000 ave          80 max          80 min
Histogram: 1 0 0 0 0 0 0 0 0 0
Nghost:        52.0000 ave          52 max          52 min
Histogram: 1 0 0 0 0 0 0 0 0 0
Neighs:        2040.00 ave        2040 max        2040 min
Histogram: 1 0 0 0 0 0 0 0 0 0

Total # of neighbors = 2040
Ave neighs/atom = 25.500000
Ave special neighs/atom = 5.7000000
Neighbor list builds = 0
Dangerous builds = 0
displace_atoms	all move v_dx v_dy 0 units box
Displacing atoms ...
thermo_style	one

group           blockA1 id <= 2
2 atoms in group blockA1
group           blockA2 id >= 79
2 atoms in group blockA2
group		blockA union blockA1 blockA2
4 atoms in group blockA
group           fB id 39 42
2 atoms in group fB
group		torque id <> 39 42
4 atoms in group torque
fix 		tetherA blockA spring/self 1217.58 xyz
variable	fxB equal -1217.58*(c_xu[39]+c_xu[42])
variable	fyB equal -1217.58*(c_yu[39]+c_yu[42])
fix             fB fB addforce v_fxB v_fyB 0.0205634 ## 2pN/2 = 1pN
fix             torque torque addtorque 0 0 0.241412 ## 10 pN·nm

variable        tns equal time*3.03e-3
variable        cpuh equal cpuremain/3600
# thermo_style    custom v_tns temp evdwl ecoul ebond eangle edihed pe v_cpuh
thermo_style    custom v_tns temp evdwl ecoul ebond eangle edihed pe v_cpuh c_hbondEnergy c_excvEnergy c_stkEnergy c_xstkEnergy c_coaxstkEnergy c_dhEnergy
thermo		660

timestep	0.01


# dump            coord all custom 660 dump.lammpstrj id type xu yu zu
# dump_modify	coord sort id

# Changed by RK to permit conversion via TacoxDNA
dump 4 all custom 660 filename.dat     id mol type x y z ix iy iz vx vy vz     c_quat[1] c_quat[2] c_quat[3] c_quat[4]     angmomx angmomy angmomz
dump_modify 4 sort id
dump_modify 4 format line "    %d %d %d %22.15le %22.15le %22.15le     %d %d %d %22.15le %22.15le %22.15le     %22.15le %22.15le %22.15le %22.15le     %22.15le %22.15le %22.15le"


run 		66000
Per MPI rank memory allocation (min/avg/max) = 10.18 | 10.18 | 10.18 Mbytes
v_tns Temp E_vdwl E_coul E_bond E_angle E_dihed PotEng v_cpuh c_hbondEnergy c_excvEnergy c_stkEnergy c_xstkEnergy c_coaxstkEnergy c_dhEnergy 
           0            0   -1.6539016            0  0.011609095            0            0   -1.6422925            0   -0.4708304            0   -1.0501531  -0.17510681            0  0.042188703 
    0.019998  0.083248118   -1.5134602            0  0.045493027            0            0   -1.4679671 0.0079649609  -0.33908848            0   -1.0904932  -0.12520089            0   0.04132246 
    0.039996   0.10738473   -1.5455128            0  0.034034965            0            0   -1.5114778 0.0080354416  -0.34286516            0   -1.1225531   -0.1228802            0  0.042785688 
    0.059994  0.082454918   -1.4845851            0  0.044372491            0            0   -1.4402126 0.0078464835  -0.33934101            0   -1.0705914  -0.11512729            0   0.04047466 
    0.079992   0.10467329   -1.5300488            0  0.043364337            0            0   -1.4866844 0.0076996136  -0.36458079            0   -1.0839817  -0.12243361            0   0.04094734 
     0.09999   0.10015741   -1.5094707            0  0.042483546            0            0   -1.4669871 0.0075824618  -0.32991722            0   -1.1108979  -0.11254304            0  0.043887425 
    0.119988  0.093814777   -1.5304762            0  0.035500697            0            0   -1.4949755 0.0074977097  -0.34743809            0    -1.104661  -0.12016941            0  0.041792369 
    0.139986   0.10094091   -1.5040358            0  0.026306025            0            0   -1.4777298 0.0074028226  -0.34529367            0   -1.0758041  -0.12311704            0  0.040178975 
    0.159984  0.082052515   -1.5078497            0  0.035093117            0            0   -1.4727566 0.0073041291   -0.3430238            0   -1.0924843  -0.11339048            0  0.041048836 
    0.179982    0.1011833     -1.50943            0  0.031185346            0            0   -1.4782447 0.0072216677  -0.34446364            0    -1.093675  -0.11321234            0  0.041921007 
     0.19998   0.10300808   -1.5496949            0  0.038044451            0            0   -1.5116505 0.0071431279  -0.35300188            0    -1.118473  -0.12169346            0  0.043473389 
    0.219978  0.099569171   -1.5350367            0   0.03851814            0            0   -1.4965186 0.0070740212  -0.33423215            0    -1.123972  -0.12061641            0  0.043783811 
    0.239976  0.087536598   -1.5471729            0  0.045785692            0            0   -1.5013872 0.0069906773  -0.34449007            0   -1.1184972  -0.12568578            0  0.041500082 
    0.259974  0.091006221   -1.5671232            0  0.054439397            0            0   -1.5126838 0.0069085494  -0.34735377            0   -1.1383663  -0.12284945            0   0.04144631 
    0.279972   0.10654558   -1.5226863            0  0.048409795            0            0   -1.4742765 0.0068191826  -0.34585654            0   -1.1092741  -0.10893077            0  0.041375067 
     0.29997   0.10740725   -1.5275676            0  0.049054762            0            0   -1.4785128 0.0067526426  -0.34802929            0   -1.1034688  -0.11750235            0  0.041432862 
    0.319968  0.097136784   -1.5084314            0  0.051272507            0            0   -1.4571588 0.0066868652  -0.32845122            0   -1.1070088  -0.11374444            0  0.040773055 
    0.339966   0.09564417   -1.5239422            0   0.04670412            0            0   -1.4772381 0.0066028604  -0.34467322            0   -1.0969073  -0.12213586            0  0.039774159 
    0.359964    0.1101943   -1.5378817            0  0.039369068            0            0   -1.4985126 0.0065130714  -0.32886573            0   -1.1319179  -0.11747097            0  0.040372918 
    0.379962   0.11791439   -1.5345181            0  0.038979561            0            0   -1.4955385 0.0064363902  -0.34565437            0   -1.1157549   -0.1136022            0  0.040493405 
     0.39996  0.095333051   -1.5413423            0  0.037143371            0            0   -1.5041989 0.0063572701  -0.35497595            0   -1.1009345  -0.12582642            0    0.0403946 
    0.419958   0.11377852   -1.5379041            0  0.042943771            0            0   -1.4949603 0.0062740109  -0.32559255            0     -1.13325   -0.1205589            0  0.041497395 
    0.439956  0.086375909   -1.4726242            0  0.043534881            0            0   -1.4290893 0.0061906916  -0.30758022            0   -1.1014633  -0.10514345            0  0.041562802 
    0.459954   0.10113343   -1.5462259            0  0.046959348            0            0   -1.4992666 0.0061100608  -0.34610991            0   -1.1209918  -0.11952067            0  0.040396435 
    0.479952   0.10719909   -1.5745802            0  0.051051597            0            0   -1.5235286 0.0060286666  -0.35438849            0   -1.1419417  -0.11877145            0   0.04052147 
     0.49995   0.10717519   -1.5327832            0   0.03909609            0            0   -1.4936871 0.0059507334  -0.33405918            0   -1.1262935  -0.11172472            0   0.03929417 
    0.519948  0.089521239   -1.5420505            0  0.052369304            0            0   -1.4896812 0.0058764135   -0.3608394            0   -1.1015164  -0.12019121            0  0.040496528 
    0.539946   0.10190739   -1.5339911            0  0.049254386            0            0   -1.4847367  0.005802692  -0.35858586            0   -1.0964034  -0.11827496            0    0.0392731 
    0.559944   0.11570338   -1.5298565            0  0.031945234            0            0   -1.4979113  0.005721795  -0.35218947            0   -1.0890708  -0.12836728            0  0.039770959 
    0.579942   0.10276407   -1.5248202            0  0.044346414            0            0   -1.4804738 0.0056421041  -0.34567927            0   -1.0962114  -0.12167203            0  0.038742506 
     0.59994    0.1123292   -1.5205198            0  0.045269309            0            0   -1.4752504 0.0055627089  -0.34867705            0   -1.0909892  -0.12175509            0  0.040901553 
    0.619938  0.098625263   -1.5145446            0  0.051331608            0            0    -1.463213 0.0054836786  -0.32864474 2.5510831e-05   -1.1086491  -0.11764163            0  0.040365359 
    0.639936   0.10205817   -1.5262086            0  0.052640477            0            0   -1.4735681 0.0054064197  -0.32511248            0   -1.1320607   -0.1095888            0  0.040553324 
    0.659934   0.11235701   -1.5378281            0  0.040027239            0            0   -1.4978009 0.0053296927   -0.3357295            0   -1.1276874  -0.11569788            0  0.041286683 
    0.679932   0.10703562   -1.5245722            0  0.050746596            0            0   -1.4738256 0.0052536237  -0.33632198            0   -1.1234365  -0.10678425            0  0.041970532 
     0.69993   0.11603334   -1.5320537            0  0.049788487            0            0   -1.4822652 0.0051719412  -0.33060716            0   -1.1292569  -0.11257651            0  0.040386939 
    0.719928   0.10401851   -1.5494762            0  0.044442201            0            0    -1.505034 0.0050960336  -0.34621678            0   -1.1377011  -0.10978974            0  0.044231386 
    0.739926   0.10934098   -1.5478656            0  0.047829553            0            0   -1.5000361 0.0050211804  -0.33169986            0   -1.1492723  -0.10705157            0  0.040158148 
    0.759924   0.10471338   -1.5083413            0  0.040431537            0            0   -1.4679098 0.0049470838   -0.3367141            0   -1.1011113  -0.11236156            0  0.041845641 
    0.779922   0.11143026   -1.5399934            0  0.038147255            0            0   -1.5018461 0.0048683961   -0.3432761            0   -1.1225606  -0.11494589            0  0.040789165 
     0.79992   0.10035312   -1.4832537            0    0.0426637            0            0     -1.44059 0.0047919313  -0.31290878            0   -1.1049962   -0.1063207            0  0.040971938 
    0.819918   0.11086971   -1.5386353            0   0.03802111            0            0   -1.5006142 0.0047122656  -0.34280684            0   -1.1149294  -0.12057808            0  0.039678955 
    0.839916   0.10215752    -1.542033            0  0.050264338            0            0   -1.4917686 0.0046319018  -0.34572981            0   -1.1158064  -0.12156246            0  0.041065746 
    0.859914   0.09837325   -1.5272236            0  0.049813719            0            0   -1.4774099 0.0045539805  -0.34983579            0   -1.1078762  -0.11051182            0  0.041000217 
    0.879912   0.10083576   -1.4909879            0  0.051722608            0            0   -1.4392653 0.0044757713  -0.32905359 0.0011230022   -1.0857476  -0.11814811            0  0.040838415 
     0.89991  0.098669883   -1.5395688            0  0.044360474            0            0   -1.4952084 0.0043955515  -0.34765466 0.00011994559   -1.1094848  -0.12121105            0  0.038661752 
    0.919908  0.096987143    -1.542584            0  0.056433407            0            0   -1.4861506 0.0043159399  -0.33540946            0   -1.1292823  -0.11855426            0  0.040662032 
    0.939906   0.10618382   -1.5283778            0  0.044760499            0            0   -1.4836173  0.004235308  -0.33195955            0    -1.124759  -0.11146882            0   0.03980956 
    0.959904   0.10229777    -1.489833            0  0.036592824            0            0   -1.4532402 0.0041544455  -0.33510484 0.00050802046   -1.0915135  -0.10344784            0  0.039725174 
    0.979902  0.095623265   -1.5409441            0  0.054157256            0            0   -1.4867869 0.0040733148  -0.33802124            0   -1.1296038   -0.1138151            0     0.040496 
      0.9999   0.09400999   -1.5376544            0  0.055080406            0            0    -1.482574 0.0039924808  -0.35556621            0   -1.1073358  -0.11516007            0    0.0404076 
    1.019898  0.084661011   -1.5435672            0  0.041289993            0            0   -1.5022772 0.0039131523  -0.35266343            0    -1.113618  -0.11685263            0  0.039566865 
    1.039896   0.11482845   -1.5034303            0   0.04352826            0            0   -1.4599021 0.0038326162  -0.33372718            0   -1.1002129  -0.10825423            0  0.038763974 
    1.059894  0.098677333   -1.4744842            0   0.04087573            0            0   -1.4336085 0.0037505448  -0.33052835            0    -1.079888  -0.10243159            0  0.038363759 
    1.079892  0.094873493   -1.5225982            0   0.05426639            0            0   -1.4683318 0.0036697279  -0.34040465            0   -1.1120881  -0.11199649            0   0.04189108 
     1.09989   0.09300711   -1.5355499            0    0.0477651            0            0   -1.4877848 0.0035886591  -0.33415187            0    -1.124959  -0.11704281            0  0.040603805 
    1.119888   0.11756431   -1.5480283            0  0.048748774            0            0   -1.4992796 0.0035078956  -0.34324142            0   -1.1189226  -0.12580499            0  0.039940646 
    1.139886   0.09866264   -1.5170522            0  0.058443534            0            0   -1.4586087 0.0034268573  -0.34111294            0   -1.1000642  -0.11532203            0  0.039446973 
    1.159884   0.08907182   -1.5399626            0  0.040218382            0            0   -1.4997443  0.003347082  -0.35270754            0   -1.1073432  -0.11955144            0   0.03963951 
    1.179882   0.12055737   -1.5345709            0  0.053217299            0            0   -1.4813536 0.0032670489  -0.35345853            0   -1.1030342  -0.11850263            0  0.040424417 
     1.19988   0.10825416   -1.5328589            0  0.047378483            0            0   -1.4854804  0.003186438  -0.34584517            0   -1.1188706  -0.10855536            0  0.040412292 
    1.219878   0.13071263   -1.5321478            0  0.043118511            0            0   -1.4890293 0.0031061785   -0.3339305            0   -1.1240535  -0.11385889            0  0.039695051 
    1.239876   0.11158977   -1.5403669            0  0.038800169            0            0   -1.5015667 0.0030265252  -0.33606385            0   -1.1238177  -0.12020479            0  0.039719458 
    1.259874   0.10736158   -1.4976665            0  0.037416008            0            0   -1.4602505 0.0029459987  -0.32239665            0   -1.0985045  -0.11771713            0  0.040951705 
    1.279872    0.1083611   -1.5366141            0  0.053589279            0            0   -1.4830249 0.0028655899   -0.3281785            0    -1.136726  -0.11327589            0  0.041566221 
     1.29987   0.10234907   -1.5464025            0  0.052949066            0            0   -1.4934534 0.0027865515  -0.32528499            0   -1.1479173  -0.11559343            0  0.042393243 
    1.319868  0.089306481   -1.5431909            0  0.048458153            0            0   -1.4947328 0.0027077806  -0.35126684            0      -1.1111   -0.1194043            0  0.038580216 
    1.339866   0.11384678   -1.5030913            0  0.036062453            0            0   -1.4670289 0.0026280915  -0.33068595            0    -1.091783  -0.12043581            0  0.039813397 
    1.359864   0.10001239   -1.5212124            0   0.04948499            0            0   -1.4717274 0.0025491838  -0.33429471            0   -1.1141124  -0.11368649            0  0.040881238 
    1.379862   0.10247973   -1.4997203            0  0.053524529            0            0   -1.4461958 0.0024698101  -0.33559728            0   -1.0841826  -0.11997159            0  0.040031158 
     1.39986   0.10400895   -1.5418125            0  0.040852914            0            0   -1.5009596 0.0023902457   -0.3480513            0   -1.1203041  -0.11469203            0  0.041234911 
    1.419858  0.099822499   -1.5502314            0  0.048344531            0            0   -1.5018869 0.0023108417  -0.35447654            0   -1.1153472  -0.12148825            0  0.041080621 
    1.439856   0.10999609   -1.5667136            0  0.045345704            0            0   -1.5213679 0.0022318842  -0.34141216            0   -1.1406989  -0.12427877            0  0.039676155 
    1.459854   0.10093511   -1.5279966            0  0.038885664            0            0   -1.4891109 0.0021520569  -0.32635444            0   -1.1251472  -0.11727794            0  0.040782941 
    1.479852   0.10003909   -1.4936339            0  0.052051955            0            0   -1.4415819 0.0020725273  -0.31391019            0   -1.1159861  -0.10412443            0  0.040386779 
     1.49985    0.1149531   -1.5140009            0   0.04250792            0            0    -1.471493 0.0019926656  -0.34025194            0   -1.1049407  -0.11131594            0  0.042507632 
    1.519848   0.11267636   -1.5034895            0   0.03883248            0            0   -1.4646571 0.0019128953   -0.3336607            0   -1.0919387  -0.11755049            0  0.039660337 
    1.539846   0.10708344   -1.5078185            0  0.038724855            0            0   -1.4690937 0.0018327227  -0.33104818            0   -1.1074179  -0.10953528            0  0.040182803 
    1.559844  0.098334114   -1.5182861            0  0.038173231            0            0   -1.4801129 0.0017532536  -0.33431119            0   -1.1136966  -0.11135139            0  0.041073118 
    1.579842   0.10161387   -1.5421249            0  0.046253427            0            0   -1.4958715  0.001673559  -0.34934826            0   -1.1107201  -0.12147044            0  0.039413921 
     1.59984  0.094461954   -1.5466884            0  0.049126398            0            0    -1.497562 0.0015934234  -0.35998778            0   -1.1147333  -0.11144056            0  0.039473237 
    1.619838   0.10683032   -1.5310833            0  0.049838997            0            0   -1.4812443 0.0015135598  -0.35519508            0   -1.0858608  -0.13038627            0  0.040358913 
    1.639836   0.10927246   -1.5258444            0  0.031673584            0            0   -1.4941708 0.0014338234  -0.33617649            0   -1.1218883  -0.10910473            0   0.04132515 
    1.659834   0.11953884   -1.5410287            0  0.062030852            0            0   -1.4789979 0.0013541167  -0.34051926            0   -1.1176099  -0.12277816            0   0.03987854 
    1.679832   0.10874781   -1.5437357            0  0.048771945            0            0   -1.4949637 0.0012744422  -0.34090509            0   -1.1193004  -0.12341622            0   0.03988607 
     1.69983   0.10043742   -1.5555703            0  0.050691877            0            0   -1.5048784 0.0011949122  -0.34419111            0   -1.1413545  -0.10937245            0  0.039347763 
    1.719828   0.10072282   -1.5414086            0  0.050052995            0            0   -1.4913556  0.001115569  -0.35243151            0   -1.1063164  -0.12171504            0  0.039054382 
    1.739826  0.089591483   -1.5740894            0  0.046326982            0            0   -1.5277624 0.0010363272  -0.34153421            0   -1.1426782  -0.13121818            0  0.041341271 
    1.759824   0.09118661   -1.5250573            0  0.054288298            0            0    -1.470769 0.0009564797  -0.33829851            0   -1.1151806  -0.11175224            0  0.040173991 
    1.779822  0.094209095   -1.5241799            0  0.036465806            0            0   -1.4877141 0.0008766506  -0.32978846            0    -1.116143  -0.11853871            0  0.040290257 
     1.79982   0.10588378   -1.5020532            0  0.043865272            0            0   -1.4581879 0.00079695627  -0.32915736            0      -1.0947  -0.11907113            0  0.040875292 
    1.819818  0.091470259   -1.5489067            0  0.040437959            0            0   -1.5084687 0.00071720234  -0.34249031            0   -1.1323854  -0.11492809            0  0.040897096 
    1.839816   0.10734463   -1.5410836            0   0.03697981            0            0   -1.5041038 0.00063747906  -0.34045293            0   -1.1240104  -0.11645414            0  0.039833855 
    1.859814   0.10554679   -1.5416313            0   0.04913754            0            0   -1.4924938 0.00055789197  -0.34018825            0   -1.1248972  -0.11803048            0  0.041484631 
    1.879812   0.10846979   -1.5524638            0  0.042358719            0            0    -1.510105 0.00047810947  -0.35052527            0   -1.1169142   -0.1242059            0  0.039181619 
     1.89981  0.095842253   -1.5644212            0  0.048760185            0            0   -1.5156611 0.00039833567  -0.34639867            0   -1.1386022   -0.1207389            0  0.041318529 
    1.919808  0.099114679   -1.5086287            0  0.044939744            0            0   -1.4636889 0.0003186464  -0.32207805            0   -1.1163723  -0.11086879            0  0.040690469 
    1.939806   0.10526694   -1.5027553            0  0.044117357            0            0   -1.4586379 0.00023897054  -0.33292417            0   -1.0915401  -0.11789345            0  0.039602512 
    1.959804   0.10542201   -1.5176948            0  0.039478333            0            0   -1.4782165 0.00015928463  -0.32421769            0   -1.1257977  -0.10757736            0  0.039897968 
    1.979802   0.11247476   -1.5461983            0  0.056696609            0            0   -1.4895017 7.9646153e-05  -0.35536417            0   -1.1097793  -0.12045684            0  0.039402002 
      1.9998   0.11598797   -1.5568799            0  0.048006852            0            0   -1.5088731            0  -0.35027731            0   -1.1217985  -0.12440976            0  0.039605666 
Loop time of 28.672 on 1 procs for 66000 steps with 80 atoms

Performance: 1988839.621 tau/day, 2301.898 timesteps/s
98.2% CPU use with 1 MPI tasks x 1 OpenMP threads

MPI task timing breakdown:
Section |  min time  |  avg time  |  max time  |%varavg| %total
---------------------------------------------------------------
Pair    | 25.205     | 25.205     | 25.205     |   0.0 | 87.91
Bond    | 0.30961    | 0.30961    | 0.30961    |   0.0 |  1.08
Neigh   | 0.012203   | 0.012203   | 0.012203   |   0.0 |  0.04
Comm    | 0.037033   | 0.037033   | 0.037033   |   0.0 |  0.13
Output  | 0.044933   | 0.044933   | 0.044933   |   0.0 |  0.16
Modify  | 3.0332     | 3.0332     | 3.0332     |   0.0 | 10.58
Other   |            | 0.03048    |            |       |  0.11

Nlocal:        80.0000 ave          80 max          80 min
Histogram: 1 0 0 0 0 0 0 0 0 0
Nghost:        52.0000 ave          52 max          52 min
Histogram: 1 0 0 0 0 0 0 0 0 0
Neighs:        1937.00 ave        1937 max        1937 min
Histogram: 1 0 0 0 0 0 0 0 0 0

Total # of neighbors = 1937
Ave neighs/atom = 24.212500
Ave special neighs/atom = 5.7000000
Neighbor list builds = 195
Dangerous builds = 0

shell           touch end

Total wall time: 0:00:28
