LAMMPS (29 Sep 2021)
  using 1 OpenMP thread(s) per MPI task

units lj

dimension 3

newton off

boundary  p p p

atom_style hybrid bond ellipsoid oxdna
WARNING: Write_data command requires newton on to preserve 3'->5' bond polarity (src/CG-DNA/atom_vec_oxdna.cpp:52)
WARNING: Atom style hybrid defines both, per-type and per-atom masses; both must be set, but only per-atom masses will be used (src/atom_vec_hybrid.cpp:157)
atom_modify sort 0 1.0

# Pair interactions require lists of neighbours to be calculated
neighbor 1.0 bin
neigh_modify every 1 delay 0 check yes

read_data data
Reading data file ...
  orthogonal box = (-25.739900 -25.739900 -25.739900) to (25.739800 25.739800 25.739800)
  1 by 1 by 1 MPI processor grid
  reading atoms ...
  80 atoms
  reading velocities ...
  80 velocities
  80 ellipsoids
  scanning bonds ...
  2 = max bonds/atom
  reading bonds ...
  78 bonds
Finding 1-2 1-3 1-4 neighbors ...
  special bond factors lj:    0        0        0       
  special bond factors coul:  0        0        0       
     2 = max # of 1-2 neighbors
     2 = max # of 1-3 neighbors
     4 = max # of 1-4 neighbors
     6 = max # of special neighbors
  special bonds CPU = 0.000 seconds
  read_data CPU = 0.002 seconds

set atom * mass 3.1575
Setting atom values ...
  80 settings made for mass

group all type 1 4
80 atoms in group all

# oxDNA bond interactions - FENE backbone
bond_style oxdna2/fene
bond_coeff * 2.0 0.25 0.7564
special_bonds lj 0 1 1
Finding 1-2 1-3 1-4 neighbors ...
  special bond factors lj:    0        1        1       
  special bond factors coul:  0        0        0       
     2 = max # of 1-2 neighbors
     2 = max # of 1-3 neighbors
     4 = max # of 1-4 neighbors
     6 = max # of special neighbors
  special bonds CPU = 0.000 seconds

# oxDNA pair interactions
pair_style hybrid/overlay oxdna2/excv oxdna2/stk oxdna2/hbond oxdna2/xstk oxdna2/coaxstk oxdna2/dh
pair_coeff * * oxdna2/excv 2.0 0.7 0.675 2.0 0.515 0.5 2.0 0.33 0.32
pair_coeff * * oxdna2/stk seqav 0.1 1.3523 2.6717 6.0 0.4 0.9 0.32 0.6 1.3 0 0.8 0.9 0 0.95 0.9 0 0.95 2.0 0.65 2.0 0.65
pair_coeff * * oxdna2/hbond seqav 0.0 8.0 0.4 0.75 0.34 0.7 1.5 0 0.7 1.5 0 0.7 1.5 0 0.7 0.46 3.141592653589793 0.7 4.0 1.5707963267948966 0.45 4.0 1.5707963267948966 0.45
pair_coeff 1 4 oxdna2/hbond seqav 1.0678 8.0 0.4 0.75 0.34 0.7 1.5 0 0.7 1.5 0 0.7 1.5 0 0.7 0.46 3.141592653589793 0.7 4.0 1.5707963267948966 0.45 4.0 1.5707963267948966 0.45
pair_coeff 2 3 oxdna2/hbond seqav 1.0678 8.0 0.4 0.75 0.34 0.7 1.5 0 0.7 1.5 0 0.7 1.5 0 0.7 0.46 3.141592653589793 0.7 4.0 1.5707963267948966 0.45 4.0 1.5707963267948966 0.45
pair_coeff * * oxdna2/xstk 47.5 0.575 0.675 0.495 0.655 2.25 0.791592653589793 0.58 1.7 1.0 0.68 1.7 1.0 0.68 1.5 0 0.65 1.7 0.875 0.68 1.7 0.875 0.68
pair_coeff * * oxdna2/coaxstk 58.5 0.4 0.6 0.22 0.58 2.0 2.891592653589793 0.65 1.3 0 0.8 0.9 0 0.95 0.9 0 0.95 40.0 3.116592653589793
pair_coeff * * oxdna2/dh 0.1 0.15 0.815

#fix 1 all nve/dot
fix 1 all nve/dotc/langevin 0.1 0.1 100.0 30362 angmom 1000
#fix 1 all nve/asphere
#fix 2 all langevin 0.1 0.1 0.03 457145 angmom 10

timestep 0.01

# Added by RK
compute hbondEnergy all pair oxdna2/hbond
compute excvEnergy all pair oxdna2/excv
compute stkEnergy all pair oxdna2/stk
compute xstkEnergy all pair oxdna2/xstk
compute coaxstkEnergy all pair oxdna2/coaxstk
compute dhEnergy all pair oxdna2/dh
compute quat all property/atom quatw quati quatj quatk
# End: added by RK

compute		xu all property/atom xu
compute		yu all property/atom yu
variable	dx equal -0.5*(c_xu[39]+c_xu[42])
variable	dy equal -0.5*(c_yu[39]+c_yu[42])
thermo_style	custom v_dx v_dy
run		0
Neighbor list info ...
  update every 1 steps, delay 0 steps, check yes
  max neighbors/atom: 2000, page size: 100000
  master list distance cutoff = 5.2019411
  ghost atom cutoff = 5.2019411
  binsize = 2.6009705, bins = 20 20 20
  5 neighbor lists, perpetual/occasional/extra = 5 0 0
  (1) pair oxdna2/excv, perpetual
      attributes: half, newton off
      pair build: half/bin/newtoff
      stencil: full/bin/3d
      bin: standard
  (2) pair oxdna2/hbond, perpetual, copy from (1)
      attributes: half, newton off
      pair build: copy
      stencil: none
      bin: none
  (3) pair oxdna2/xstk, perpetual, copy from (1)
      attributes: half, newton off
      pair build: copy
      stencil: none
      bin: none
  (4) pair oxdna2/coaxstk, perpetual, copy from (1)
      attributes: half, newton off
      pair build: copy
      stencil: none
      bin: none
  (5) pair oxdna2/dh, perpetual, copy from (1)
      attributes: half, newton off
      pair build: copy
      stencil: none
      bin: none
Per MPI rank memory allocation (min/avg/max) = 7.710 | 7.710 | 7.710 Mbytes
v_dx v_dy 
    -2.71054    4.5889718 
Loop time of 1.90735e-06 on 1 procs for 0 steps with 80 atoms

0.0% CPU use with 1 MPI tasks x 1 OpenMP threads

MPI task timing breakdown:
Section |  min time  |  avg time  |  max time  |%varavg| %total
---------------------------------------------------------------
Pair    | 0          | 0          | 0          |   0.0 |  0.00
Bond    | 0          | 0          | 0          |   0.0 |  0.00
Neigh   | 0          | 0          | 0          |   0.0 |  0.00
Comm    | 0          | 0          | 0          |   0.0 |  0.00
Output  | 0          | 0          | 0          |   0.0 |  0.00
Modify  | 0          | 0          | 0          |   0.0 |  0.00
Other   |            | 1.907e-06  |            |       |100.00

Nlocal:        80.0000 ave          80 max          80 min
Histogram: 1 0 0 0 0 0 0 0 0 0
Nghost:        8.00000 ave           8 max           8 min
Histogram: 1 0 0 0 0 0 0 0 0 0
Neighs:        1678.00 ave        1678 max        1678 min
Histogram: 1 0 0 0 0 0 0 0 0 0

Total # of neighbors = 1678
Ave neighs/atom = 20.975000
Ave special neighs/atom = 5.7000000
Neighbor list builds = 0
Dangerous builds = 0
displace_atoms	all move v_dx v_dy 0 units box
Displacing atoms ...
thermo_style	one

group           blockA1 id <= 2
2 atoms in group blockA1
group           blockA2 id >= 79
2 atoms in group blockA2
group		blockA union blockA1 blockA2
4 atoms in group blockA
group           fB id 39 42
2 atoms in group fB
group		torque id <> 39 42
4 atoms in group torque
fix 		tetherA blockA spring/self 1217.58 xyz
variable	fxB equal -1217.58*(c_xu[39]+c_xu[42])
variable	fyB equal -1217.58*(c_yu[39]+c_yu[42])
fix             fB fB addforce v_fxB v_fyB 0.0205634 ## 2pN/2 = 1pN
fix             torque torque addtorque 0 0 0.241412 ## 10 pN·nm

variable        tns equal time*3.03e-3
variable        cpuh equal cpuremain/3600
# thermo_style    custom v_tns temp evdwl ecoul ebond eangle edihed pe v_cpuh
thermo_style    custom v_tns temp evdwl ecoul ebond eangle edihed pe v_cpuh c_hbondEnergy c_excvEnergy c_stkEnergy c_xstkEnergy c_coaxstkEnergy c_dhEnergy
thermo		660

timestep	0.01


# dump            coord all custom 660 dump.lammpstrj id type xu yu zu
# dump_modify	coord sort id

# Changed by RK to permit conversion via TacoxDNA
dump 4 all custom 660 filename.dat     id mol type x y z ix iy iz vx vy vz     c_quat[1] c_quat[2] c_quat[3] c_quat[4]     angmomx angmomy angmomz
dump_modify 4 sort id
dump_modify 4 format line "    %d %d %d %22.15le %22.15le %22.15le     %d %d %d %22.15le %22.15le %22.15le     %22.15le %22.15le %22.15le %22.15le     %22.15le %22.15le %22.15le"


run 		66000
Per MPI rank memory allocation (min/avg/max) = 10.11 | 10.11 | 10.11 Mbytes
v_tns Temp E_vdwl E_coul E_bond E_angle E_dihed PotEng v_cpuh c_hbondEnergy c_excvEnergy c_stkEnergy c_xstkEnergy c_coaxstkEnergy c_dhEnergy 
           0            0   -1.6486504            0  0.011609095            0            0   -1.6370413            0   -0.4709413            0    -1.044791  -0.17510681            0  0.042188703 
    0.019998  0.081968544    -1.499179            0  0.048483073            0            0   -1.4506959 0.0069045305   -0.3428966            0   -1.0725573  -0.12471498            0  0.040989898 
    0.039996   0.10606938   -1.5358406            0  0.039666297            0            0   -1.4961743 0.0068214405  -0.34509276            0   -1.1139807  -0.11969756            0  0.042930448 
    0.059994  0.090637034   -1.4936448            0  0.039295664            0            0   -1.4543491  0.006717931  -0.34523804            0   -1.0734882  -0.11524379            0  0.040325264 
    0.079992   0.10111283   -1.5157379            0  0.041019288            0            0   -1.4747186   0.00663812   -0.3514217            0   -1.0809682  -0.12436211            0  0.041014087 
     0.09999   0.11037146   -1.5093456            0  0.037540883            0            0   -1.4718047 0.0065741371  -0.32954004            0   -1.1065125   -0.1169134            0  0.043620414 
    0.119988  0.091658338   -1.5112057            0  0.032682139            0            0   -1.4785236 0.0065057794   -0.3405353            0   -1.0932352  -0.11912331            0  0.041688082 
    0.139986   0.10178605    -1.475489            0  0.030934471            0            0   -1.4445545 0.0064442394  -0.32392405            0   -1.0727975  -0.11914634            0  0.040378898 
    0.159984  0.096580791   -1.4985399            0  0.033015459            0            0   -1.4655244 0.0063789224  -0.34057059            0   -1.0904603  -0.10877022            0  0.041261242 
    0.179982  0.088949352   -1.4975029            0  0.031539034            0            0   -1.4659639   0.00632687  -0.33648613            0   -1.0922115  -0.11105026            0  0.042244962 
     0.19998   0.10008786   -1.5369627            0  0.039408817            0            0   -1.4975539 0.0062630022  -0.34374622            0   -1.1159564  -0.12097204            0  0.043712015 
    0.219978     0.094618   -1.5366673            0  0.044589779            0            0   -1.4920775 0.0061957798  -0.33992837            0   -1.1210996  -0.11941087            0  0.043771484 
    0.239976  0.092190191   -1.5465106            0  0.049939004            0            0   -1.4965716 0.0061241498  -0.35016153            0   -1.1107032  -0.12712807            0  0.041482223 
    0.259974  0.083768053   -1.5481683            0  0.050715391            0            0   -1.4974529 0.0060475893   -0.3406785            0   -1.1264031   -0.1224756            0  0.041388952 
    0.279972   0.10506521   -1.5120499            0  0.051519515            0            0   -1.4605304 0.0059819584  -0.34132419            0   -1.1052573  -0.10714173            0  0.041673256 
     0.29997    0.1081934   -1.5290302            0  0.049603644            0            0   -1.4794266 0.0059162626  -0.35335125            0   -1.0949149  -0.12218382            0  0.041419698 
    0.319968   0.10508805    -1.497539            0  0.048903503            0            0   -1.4486355 0.0058459581  -0.32862084            0    -1.096485  -0.11279756            0  0.040364385 
    0.339966  0.091404879   -1.5135162            0  0.057306923            0            0   -1.4562093  0.005773221   -0.3448948            0   -1.0892899  -0.11923391            0  0.039902429 
    0.359964   0.11521343   -1.5461895            0  0.042022199            0            0   -1.5041673 0.0056992454   -0.3400127            0   -1.1280552  -0.11846777            0  0.040346206 
    0.379962   0.11727569   -1.5205984            0    0.0456436            0            0   -1.4749548 0.0056301702  -0.34016382            0   -1.1084393  -0.11245054            0  0.040455298 
     0.39996   0.10268035   -1.5210777            0  0.037576247            0            0   -1.4835015 0.0055622366  -0.34377604            0   -1.0944401  -0.12325499            0   0.04039341 
    0.419958   0.10915626   -1.5329217            0  0.038050869            0            0   -1.4948709 0.0054929012  -0.33096531            0   -1.1219354  -0.12109056            0  0.041069553 
    0.439956  0.090073396   -1.4944061            0  0.047247011            0            0   -1.4471591 0.0054229135  -0.32536362            0   -1.1042003  -0.10645398            0  0.041611795 
    0.459954  0.099112971   -1.5335886            0  0.043622244            0            0   -1.4899664 0.0053528838   -0.3352809            0   -1.1189686  -0.11987916            0  0.040540059 
    0.479952   0.10590677   -1.5753767            0  0.053550119            0            0   -1.5218266 0.0052830055  -0.35602505            0   -1.1420519  -0.11807756            0  0.040777888 
     0.49995   0.11130763   -1.5366895            0  0.040370351            0            0   -1.4963192 0.0052145491  -0.33336892 0.00035413556   -1.1287778  -0.11410723            0   0.03921026 
    0.519948  0.084897484   -1.5283834            0  0.050000511            0            0   -1.4783829 0.0051466043  -0.36305148            0   -1.0849981  -0.12073973            0  0.040405936 
    0.539946  0.097798975   -1.5383101            0  0.050774267            0            0   -1.4875358  0.005076993  -0.36762512            0   -1.0875011  -0.12210471            0  0.038920796 
    0.559944   0.12075663   -1.5275952            0  0.030306288            0            0    -1.497289 0.0050066192  -0.35208779            0   -1.0845538  -0.13069412            0  0.039740502 
    0.579942  0.097154634   -1.5166365            0  0.043389509            0            0    -1.473247 0.0049354038  -0.33530511            0   -1.1038542  -0.11671165            0  0.039234441 
     0.59994   0.10967223    -1.497525            0  0.044278322            0            0   -1.4532466 0.0048676308  -0.33738084            0   -1.0786142  -0.12228302            0   0.04075311 
    0.619938   0.10053054   -1.5083005            0  0.039572508            0            0    -1.468728 0.0047986049  -0.33539859            0   -1.0939948  -0.11860376            0  0.039696646 
    0.639936  0.096184391   -1.5397789            0  0.055993261            0            0   -1.4837857  0.004731741  -0.33540869            0   -1.1296645  -0.11490745            0    0.0402017 
    0.659934   0.10463947   -1.5230675            0  0.039514269            0            0   -1.4835532 0.0046627031  -0.33889984            0   -1.1085214  -0.11642029            0  0.040774062 
    0.679932   0.10317758   -1.5148871            0  0.051213595            0            0   -1.4636735 0.0045928731    -0.330374            0   -1.1143766  -0.11183266            0  0.041696153 
     0.69993   0.10294416   -1.5093794            0  0.051095867            0            0   -1.4582835 0.0045266686  -0.32563287            0    -1.111715  -0.11247665            0  0.040445081 
    0.719928  0.097530175   -1.5392448            0  0.050932527            0            0   -1.4883123 0.0044609062  -0.33731947            0   -1.1349399  -0.11123973            0  0.044254329 
    0.739926  0.099330386   -1.5469611            0  0.046197235            0            0   -1.5007639 0.0043950219  -0.33598505            0   -1.1389436   -0.1118311            0  0.039798658 
    0.759924   0.10204376   -1.5094329            0  0.038976742            0            0   -1.4704562 0.0043272795  -0.34721657            0   -1.0884081   -0.1152277            0  0.041419486 
    0.779922   0.10596811   -1.5150473            0  0.039839931            0            0   -1.4752074 0.0042584517  -0.33229563            0   -1.1072403  -0.11618998            0  0.040678564 
     0.79992   0.09300494   -1.4782543            0  0.040215558            0            0   -1.4380387 0.0041896871   -0.3202472            0    -1.092273  -0.10657681            0  0.040842747 
    0.819918  0.086314832   -1.5059492            0  0.041907308            0            0   -1.4640419 0.0041202858  -0.33151143            0   -1.0977661  -0.11653387            0  0.039862139 
    0.839916  0.098757837   -1.5176146            0  0.049463667            0            0   -1.4681509 0.0040512478  -0.33443458            0   -1.1042959  -0.12003044            0  0.041146359 
    0.859914   0.11772019   -1.5326556            0  0.050151823            0            0   -1.4825037 0.0039819791  -0.35020235            0   -1.1107559  -0.11281991            0  0.041122576 
    0.879912   0.10464808   -1.5043558            0  0.051964111            0            0   -1.4523917 0.0039121041  -0.34709219            0   -1.0799682   -0.1173697            0  0.040074318 
     0.89991  0.092739192   -1.5130992            0  0.043261912            0            0   -1.4698373 0.0038408327  -0.34020187            0   -1.0936638  -0.11776268            0  0.038529164 
    0.919908  0.093738375   -1.5288755            0   0.04910611            0            0   -1.4797694 0.0037697631  -0.33085059            0   -1.1217507  -0.11687353            0  0.040599363 
    0.939906  0.095431569   -1.5452031            0  0.046500356            0            0   -1.4987027 0.0037000947  -0.34142829            0   -1.1297308  -0.11410361            0  0.040059652 
    0.959904  0.099603887   -1.4971777            0  0.034977699            0            0      -1.4622 0.0036305169  -0.33616686            0   -1.0954961  -0.10528694            0  0.039772128 
    0.979902   0.10021524   -1.5294738            0  0.048479985            0            0   -1.4809938   0.00356075  -0.33490792            0   -1.1217321  -0.11326903            0  0.040435295 
      0.9999  0.089014335   -1.5272382            0  0.050813855            0            0   -1.4764243 0.0034914669  -0.34619801            0   -1.1041972  -0.11725049            0  0.040407551 
    1.019898    0.0872117   -1.5297957            0  0.039756979            0            0   -1.4900388 0.0034216588  -0.34909809 0.00011653951   -1.1049506  -0.11579253            0  0.039928896 
    1.039896   0.11760204    -1.485206            0  0.039658795            0            0   -1.4455472 0.0033520369  -0.31874383            0   -1.0984614   -0.1069899            0   0.03898913 
    1.059894  0.095154186   -1.4807938            0  0.043952848            0            0    -1.436841 0.0032825664  -0.33304761            0   -1.0799324  -0.10620807            0  0.038394213 
    1.079892   0.10262251     -1.51737            0   0.05067241            0            0   -1.4666976 0.0032127952  -0.34181515            0   -1.1053273   -0.1117981            0  0.041570489 
     1.09989  0.095623591   -1.5504773            0  0.052583695            0            0   -1.4978936 0.0031427407  -0.35312879            0   -1.1205767  -0.11778403            0  0.041012258 
    1.119888   0.11448063   -1.5291357            0  0.046737255            0            0   -1.4823984  0.003072429  -0.34348662            0   -1.0987517  -0.12651678            0  0.039619478 
    1.139886   0.10777175   -1.5116743            0   0.05816623            0            0    -1.453508  0.003001847  -0.34230752            0   -1.0942313  -0.11456356            0  0.039428072 
    1.159884  0.098853062   -1.5427634            0  0.045465829            0            0   -1.4972976 0.0029322954  -0.35059048            0   -1.1098274  -0.12213668            0  0.039791169 
    1.179882   0.10956284   -1.5237857            0  0.049337919            0            0   -1.4744478 0.0028623183    -0.351047            0   -1.0913437  -0.12140801            0  0.040012993 
     1.19988   0.10809856   -1.5291727            0  0.054646617            0            0   -1.4745261 0.0027927672  -0.34411327            0   -1.1142765  -0.11102136            0  0.040238394 
    1.219878   0.12253194   -1.5245034            0  0.046255583            0            0   -1.4782479 0.0027227708  -0.32762628            0   -1.1241017  -0.11260725            0  0.039831817 
    1.239876  0.097845097   -1.5354452            0  0.041486474            0            0   -1.4939587  0.002653349   -0.3319722 7.6288446e-06   -1.1265663  -0.11677525            0  0.039860908 
    1.259874  0.098723308   -1.4805831            0  0.038850326            0            0   -1.4417327 0.0025836232  -0.32672171            0   -1.0785484  -0.11617469            0  0.040861698 
    1.279872  0.089779239   -1.5405369            0   0.05479896            0            0   -1.4857379 0.0025145031  -0.33936598            0   -1.1250558  -0.11714075            0  0.041025608 
     1.29987  0.099822597   -1.5453608            0  0.049161477            0            0   -1.4961993 0.0024449386  -0.34054616            0   -1.1293605  -0.11766916            0  0.042214998 
    1.319868  0.094658868   -1.5354026            0  0.047584152            0            0   -1.4878184 0.0023752084  -0.34358261            0   -1.1100218  -0.12038628            0  0.038588103 
    1.339866   0.10448167   -1.5054164            0  0.041004317            0            0   -1.4644121 0.0023054841  -0.33590954            0    -1.090871  -0.11842272            0  0.039786833 
    1.359864  0.096178475    -1.518294            0    0.0523431            0            0   -1.4659509 0.0022360362  -0.33482863            0   -1.1082716   -0.1161026            0  0.040908785 
    1.379862  0.091293002   -1.4927446            0  0.044897382            0            0   -1.4478473 0.0021666972  -0.34093113            0   -1.0723367  -0.11928098            0  0.039804191 
     1.39986   0.10462316    -1.535386            0  0.038260848            0            0   -1.4971251 0.0020975002  -0.34594955            0   -1.1167448   -0.1139302            0  0.041238549 
    1.419858  0.097563315   -1.5326756            0  0.042528853            0            0   -1.4901467 0.0020280855  -0.35411735            0   -1.0995507  -0.11995263            0  0.040945132 
    1.439856   0.10151408   -1.5581943            0  0.045874324            0            0     -1.51232 0.0019583724   -0.3497092            0   -1.1233493  -0.12468149            0  0.039545699 
    1.459854  0.093982802   -1.5219535            0  0.044433197            0            0   -1.4775203 0.0018885332  -0.32601215            0   -1.1195308  -0.11724416            0  0.040833537 
    1.479852   0.10002459   -1.4953713            0  0.054927222            0            0    -1.440444 0.0018186891  -0.31565232            0   -1.1167222  -0.10322175            0  0.040224991 
     1.49985    0.1039316   -1.5018918            0  0.046489835            0            0   -1.4554019 0.0017488355  -0.33469838            0   -1.1006992  -0.10885652            0  0.042362326 
    1.519848   0.11179058   -1.4924297            0  0.035517875            0            0   -1.4569118 0.0016790019  -0.32858847            0   -1.0887613   -0.1146918            0  0.039611936 
    1.539846   0.10087753   -1.4980692            0  0.035024467            0            0   -1.4630447 0.0016089572  -0.32998715            0   -1.0957699   -0.1122583            0  0.039946182 
    1.559844  0.098022105   -1.5081778            0   0.03881665            0            0   -1.4693611 0.0015390586  -0.33458658            0   -1.1039773  -0.11067236            0  0.041058478 
    1.579842  0.094784703    -1.526923            0  0.044827495            0            0   -1.4820955 0.0014691611  -0.34850879            0   -1.1001558  -0.11753053            0  0.039272197 
     1.59984  0.096842577   -1.5357532            0  0.045515155            0            0    -1.490238 0.0013991505  -0.36062177            0   -1.0999534  -0.11444516            0  0.039267172 
    1.619838   0.10253177   -1.5249778            0  0.044984988            0            0   -1.4799928 0.0013291773  -0.35841905            0   -1.0762984  -0.13052831            0  0.040267955 
    1.639836   0.11032419   -1.5208013            0  0.034213325            0            0   -1.4865879 0.0012591499  -0.34002142            0   -1.1143231  -0.10803074            0  0.041574036 
    1.659834   0.13039073   -1.5397513            0  0.056513426            0            0   -1.4832379  0.001189178    -0.340938            0   -1.1144491  -0.12441476            0  0.040050582 
    1.679832    0.1049354   -1.5604923            0  0.041644667            0            0   -1.5188476 0.0011191391  -0.35807038            0   -1.1141444  -0.12775391            0  0.039476443 
     1.69983  0.097026589   -1.5275946            0  0.048438926            0            0   -1.4791557 0.0010491442   -0.3320135            0   -1.1262141  -0.10883404            0   0.03946702 
    1.719828  0.094399292   -1.5282452            0  0.048362304            0            0   -1.4798829 0.00097934381  -0.34868199            0   -1.0972527  -0.12102248            0  0.038711958 
    1.739826  0.090732869   -1.5785543            0  0.048494737            0            0   -1.5300595 0.0009096075  -0.35762995            0   -1.1376116   -0.1249235            0  0.041610736 
    1.759824  0.095121161   -1.5083776            0  0.054983773            0            0   -1.4533939 0.00083968337  -0.33240149            0   -1.1045756  -0.11133268            0  0.039932127 
    1.779822  0.090487545   -1.5196443            0  0.031397297            0            0    -1.488247 0.00076979211  -0.32658025            0   -1.1143984  -0.11924727            0  0.040581603 
     1.79982    0.1072738   -1.5170518            0  0.043026884            0            0   -1.4740249 0.00069986836   -0.3486572            0   -1.0859881  -0.12301557            0  0.040609064 
    1.819818  0.090397982   -1.5424639            0  0.041769426            0            0   -1.5006944 0.00062998143  -0.34307857            0   -1.1259527  -0.11462458            0   0.04119194 
    1.839816   0.10251694   -1.5335958            0  0.036889245            0            0   -1.4967065 0.00055996038  -0.34338769            0   -1.1147359  -0.11534036            0   0.03986819 
    1.859814   0.10090198   -1.5337137            0   0.05018753            0            0   -1.4835262 0.00048994012  -0.34071626            0   -1.1191649  -0.11560015            0  0.041767596 
    1.879812   0.10244003    -1.530404            0  0.043319823            0            0   -1.4870841 0.00041992645   -0.3491528            0   -1.0968359  -0.12344999            0  0.039034744 
     1.89981   0.10924323   -1.5493312            0  0.042601127            0            0   -1.5067301 0.00034991724   -0.3433631            0   -1.1244909  -0.12252791            0   0.04105067 
    1.919808  0.098365987   -1.5010362            0  0.043641307            0            0   -1.4573949 0.00027993156  -0.33092186            0    -1.099441  -0.11107289            0  0.040399516 
    1.939806    0.1003672   -1.4910454            0  0.043247571            0            0   -1.4477978 0.00020994835  -0.33259073            0   -1.0806919  -0.11757102            0  0.039808309 
    1.959804   0.10444401   -1.5338351            0  0.041819526            0            0   -1.4920156 0.00013997502  -0.33505645            0   -1.1292358  -0.10947318            0  0.039930335 
    1.979802   0.11265293   -1.5458086            0  0.052487981            0            0   -1.4933206 7.000145e-05  -0.35902345            0   -1.1051602  -0.12078782            0   0.03916294 
      1.9998   0.10992811   -1.5493682            0  0.048527384            0            0   -1.5008408            0  -0.34577174            0   -1.1191771   -0.1245547            0  0.040135373 
Loop time of 25.2014 on 1 procs for 66000 steps with 80 atoms

Performance: 2262729.462 tau/day, 2618.900 timesteps/s
99.6% CPU use with 1 MPI tasks x 1 OpenMP threads

MPI task timing breakdown:
Section |  min time  |  avg time  |  max time  |%varavg| %total
---------------------------------------------------------------
Pair    | 21.777     | 21.777     | 21.777     |   0.0 | 86.41
Bond    | 0.29749    | 0.29749    | 0.29749    |   0.0 |  1.18
Neigh   | 0.012542   | 0.012542   | 0.012542   |   0.0 |  0.05
Comm    | 0.02236    | 0.02236    | 0.02236    |   0.0 |  0.09
Output  | 0.047992   | 0.047992   | 0.047992   |   0.0 |  0.19
Modify  | 3.0122     | 3.0122     | 3.0122     |   0.0 | 11.95
Other   |            | 0.03168    |            |       |  0.13

Nlocal:        80.0000 ave          80 max          80 min
Histogram: 1 0 0 0 0 0 0 0 0 0
Nghost:        9.00000 ave           9 max           9 min
Histogram: 1 0 0 0 0 0 0 0 0 0
Neighs:        1604.00 ave        1604 max        1604 min
Histogram: 1 0 0 0 0 0 0 0 0 0

Total # of neighbors = 1604
Ave neighs/atom = 20.050000
Ave special neighs/atom = 5.7000000
Neighbor list builds = 199
Dangerous builds = 0

shell           touch end

Total wall time: 0:00:25
